Compiler and run-time data
===========================================================================
RASPA 2.0.47
Compiled as a 64-bits application
Compiler: gcc 9.4.0
Compile Date = Nov 30 2021, Compile Time = 22:49:04

Mon Feb 27 16:01:48 2023
Simulation started on Monday, February 27.
The start time was 04:01 PM.

Hostname:    theochem3
OS type:     Linux on x86_64
OS release:  5.4.0-137-generic
OS version:  #154-Ubuntu SMP Thu Jan 5 17:03:22 UTC 2023

Simulation
===========================================================================
Dimensions: 3
Random number seed: 1677475908
RASPA directory set to: /home/jevans/RASPA/simulations
String appended to output-files: 
Number of cycles: 25000
Number of initializing cycles: 5000
Number of equilibration cycles: 0
Print every: 1000
Rectangular boundary condition applied
Timestep: 0.000500
	Degrees of freedom:                        0
	Translational Degrees of freedom:          0
	Rotational Degrees of freedom:             0
	Degrees of freedom Framework:              0


Mutual consistent basic set of units:
======================================
Unit of temperature: Kelvin
Unit of length:      1e-10 [m]
Unit of time:        1e-12 [s]
Unit of mass:        1.66054e-27 [kg]
Unit of charge:      1.60218e-19 [C/particle]

Derived units and their conversion factors:
===========================================
Unit of energy:              1.66054e-23 [J]
Unit of force:               1.66054e-13 [N]
Unit of pressure:            1.66054e+07 [Pa]
Unit of velocity:            100 [m/s]
Unit of acceleration:        1e-08 [m^2/s]
Unit of diffusion:           1e-08 [m^2/s]
Unit of dipole moment:       1.60218e-29 [C.m]
Unit of electric potential:  0.000103643 [V]
Unit of electric field:      1.03643e+06 [V]
Unit of polarizability:      1.54587e-35 [-]
Unit of Coulomb potential:   167101.0800066561  [K]
Unit of dielectric constant: 0.0000154587       [s^2 C^2/(kg m^3)]
Unit of wave vectors:        5.3088374589       [cm^1]
Boltzmann constant:          0.8314464919       [-]

Internal conversion factors:
===========================================
Energy to Kelvin:                                    1.2027242847
FH correction factor                                 2.0211930949
Heat capacity conversion factor:                    10.0000088723
From Debye to internal units:                        4.8032067991
Isothermal compressibility conversion factor:        0.0000000602

Energy conversion factors:
===========================================
From mdyne/A to kcal/mol/A^2:           143.933
From mdyne/A to kj/mol/A^2:             602.214
From mdyne/A to K/A^2:                  72429.7
From mdyne A/rad^2 to kcal/mol/deg^2:   0.0438444


Properties computed
===========================================================================
Movies: no
Radial Distribution Function: no
Number of molecules GCMC histogram: yes
	Number of molecules histograms are written to file every 5000 cycles
	Size of the number-of-molecule histogram: 1100
	Range of the number-of-molecule histogram: 80.000000
Histogram of the molecule positions: no
Free energy profiles: no
Pore Size Distribution Function: no
End-to-end distance: no
Histogram of the energy of the system: yes
	Energy histograms are written to file every 5000 cycles
	Lower limit of the energy histogram: -110000.000000
	Upper limit of the energy histogram: -20000.000000
	Size of the energy histogram: 400
Compute thermodynamic factors: no
Framework spacing histograms: no
Residence times histograms: no
Distance histograms: no
Bend Angle histograms: no
Dihedral angle histograms: no
Angle between planes histograms: no
Molecule properties: no
Infra-red spectra: no
Mean-squared displacement using modified order-N algorithm: no
Velocity-autocorrelation function modified order-N algorithm: no
Rotational velocity-autocorrelation function modified order-N algorithm: no
Molecular orientation-autocorrelation function modified order-N algorithm: no
Bond orientation-autocorrelation function modified order-N algorithm: no
Mean-squared displacement (conventional algorithm): no
Velocity-autocorrelation function (conventional algorithm): no
3D density grid for adsorbates: no
Compute cation an/or adsorption sites: no
dcTST snapshots: no
Compute pressure and stress: no


VTK
===========================================================================
VTK fractional-range position framework atoms: [-0.001000,1.001000] [-0.001000,1.001000] [-0.001000,1.001000]
VTK fractional-range position framework bonds: [-0.151000,1.151000] [-0.151000,1.151000] [-0.151000,1.151000]
VTK fractional-range com-position adsorbate molecules: [-0.101000,1.101000] [-0.101000,1.101000] [-0.101000,1.101000]
VTK fractional-range com-position cation molecules: [-0.101000,1.101000] [-0.101000,1.101000] [-0.101000,1.101000]
	3D free energy grid made for the full simulation-cell


Thermo/Baro-stat NHC parameters
===========================================================================
External temperature: 300 [K]
Beta: 0.00400908 [energy unit]
Number of isotherm points: 3
		 point   0: External Pressure: 1000 [Pa]
	 point   1: External Pressure: 10000 [Pa]
	 point   2: External Pressure: 100000 [Pa]


Thermostat chain-length: 3
Timescale parameter for thermostat: 0.150000 [ps]
Barostat chain-length:   3
Timescale parameter for barostat:   0.150000 [ps]

Number of Yoshida-Suzuki decomposition steps: 5
Number of respa steps: 5


Method and settings for electrostatics
===============================================================================
Dielectric constant of the medium : 1.000000
Charge from charge-equilibration: no
Ewald summation is used (exact solution of a periodic system)
Relative precision                : 1e-06
Alpha convergence parameter       : 0.265058
kvec (x,y,z)                      : 11 11 7


CFC-RXMC parameters
===========================================================================
Number of reactions: 0


Rattle parameters
===========================================================================
Distance constraint type: r^2-r^2_0
Bend angle constraint type: theta-theta_0
Dihedral angle constraint type: phi-phi_0
Inversion-bend angle constraint type: chi-chi_0
Out-of-plane distance constraint type: r-r_0


Spectra parameters
===========================================================================
Compute normal modes: no


Minimization parameters
===========================================================================
Generalized coordinates are: Cartesian center-of-mass, elements of the orientational matrix p1,p2,p3 and strain
Potential derivatives are evaluated: analytically
Translation of the system is removed from the generalized Hessian: no
Rotation of the system is removed from the generalized Hessian: no
Maximum step-length: 0.3
Convergence factor: 1
Maximum number of minimization steps: 10000
Use gradients in the line-minimizations: yes
RMS gradient tolerance: 1e-06
Maximum gradient tolerance: 1e-06

Distance constraints: 0
Angle constraints: 0
Dihedral constraints: 0

Improper dihedral constraints: 0

Inversion-bend constraints: 0

Out-of-plane constraints: 0

Harmonic distance constraints: 0
Harmonic angle constraints: 0
Harmonic dihedral constraints: 0

Dihedral mid-point measurements: 0

All framework atoms are fixed

Fixed adsorbate atoms:  
Fixed adsorbate groups (center-of-mass):  
Fixed adsorbate groups (orientation):  

Fixed cation atoms:  
Fixed cation groups (center-of-mass):  
Fixed cation groups (orientation):  


dcTST parameters
===========================================================================
Free energy profiles computed: no
Free energy profiles written every 5000 cycles
Free energy mapping: mapped to a,b,c-coordinates
BarrierPosition:       0.0000000000       0.0000000000       0.0000000000
BarrierNormal:         0.0000000000       0.0000000000       0.0000000000
Start with a molecule on top of the barrier: no
Maximum distance to barrier (e.g. distance to minumum free energy):       0.0000000000 [A]
Maximum trajectory time:      10.0000000000 [ps]
Each configuration is used with 5 different initial velocities


Cbmc parameters
===========================================================================
Biasing method: using only the VDW part
Number of trial positions:                                       10
Number of trial positions (reinsertion):                         10
Number of trial positions (partial reinsertion):                 10
Number of trial positions (identity-change):                     10
Number of trial positions (Gibbs particle transfer):             10
Number of trial positions (insertion/deletion):                  10
Number of trial positions (Widom insertion):                     10
Number of trial positions coupled Torsion-selection:             100
Number of trial positions first bead:                            10
Number of trial positions first bead (reinsertion):              10
Number of trial positions first bead (partial reinsertion):      10
Number of trial positions first bead (identity-change):          10
Number of trial positions first bead (Gibbs particle transfer):  10
Number of trial positions first bead (insertion/deletion):       10
Number of trial positions first bead (Widom insertion):          10
Number of trial moves per open bead:                             150
Target acceptance ratio small-mc scheme:                         0.400000
Energy overlap criteria:                                         1e+07
Minimal Rosenbluth factor:                                       1e-150


Pseudo atoms: 16
===========================================================================
Pseudo Atom[   0] Name UNIT     Oxidation:          Element: H    pdb-name: H    Scat. Types:   1   1 Mass=1.000000000  B-factor:0.000   
                 Charge=1.000000000          Polarization=0.000000000  [A^3] (considered a charged atom and no polarization)  Interactions: yes
                 Anisotropic factor:    0.000 [-] (Absolute), Radius:    1.000 [A], Framework-atom:  no
Pseudo Atom[   1] Name He       Oxidation: +0       Element: He   pdb-name: He   Scat. Types:   3   2 Mass=4.002602000  B-factor:1.000   
                 Charge=0.000000000          Polarization=0.000000000  [A^3] (considered a chargeless atom and no polarization)  Interactions: yes
                 Anisotropic factor:    0.000 [-] (Relative), Radius:    1.000 [A], Framework-atom:  no
Pseudo Atom[   2] Name C_co2    Oxidation: +0       Element: C    pdb-name: C    Scat. Types:   7   6 Mass=12.000000000 B-factor:1.000   
                 Charge=0.651200000          Polarization=0.000000000  [A^3] (considered a charged atom and no polarization)  Interactions: yes
                 Anisotropic factor:    0.000 [-] (Relative), Radius:    0.720 [A], Framework-atom:  no
Pseudo Atom[   3] Name O_co2    Oxidation: +0       Element: O    pdb-name: O    Scat. Types:   9   8 Mass=15.999400000 B-factor:1.000   
                 Charge=-0.325600000         Polarization=0.000000000  [A^3] (considered a charged atom and no polarization)  Interactions: yes
                 Anisotropic factor:    0.000 [-] (Relative), Radius:    0.680 [A], Framework-atom:  no
Pseudo Atom[   4] Name O_o2     Oxidation: +0       Element: O    pdb-name: O    Scat. Types:   9   8 Mass=15.999400000 B-factor:1.000   
                 Charge=-0.112000000         Polarization=0.000000000  [A^3] (considered a charged atom and no polarization)  Interactions: yes
                 Anisotropic factor:    0.000 [-] (Relative), Radius:    0.700 [A], Framework-atom:  no
Pseudo Atom[   5] Name O_com    Oxidation: +0       Element: -    pdb-name: O    Scat. Types:   0   8 Mass=0.000000000  B-factor:1.000   
                 Charge=0.224000000          Polarization=0.000000000  [A^3] (considered a charged atom and no polarization)  Interactions: yes
                 Anisotropic factor:    0.000 [-] (Relative), Radius:    0.700 [A], Framework-atom:  no
Pseudo Atom[   6] Name N_n2     Oxidation: +0       Element: N    pdb-name: N    Scat. Types:   8   7 Mass=14.006740000 B-factor:1.000   
                 Charge=-0.405000000         Polarization=0.000000000  [A^3] (considered a charged atom and no polarization)  Interactions: yes
                 Anisotropic factor:    0.000 [-] (Relative), Radius:    0.700 [A], Framework-atom:  no
Pseudo Atom[   7] Name N_com    Oxidation: +0       Element: -    pdb-name: N    Scat. Types:   0   7 Mass=0.000000000  B-factor:1.000   
                 Charge=0.810000000          Polarization=0.000000000  [A^3] (considered a charged atom and no polarization)  Interactions: yes
                 Anisotropic factor:    0.000 [-] (Relative), Radius:    0.700 [A], Framework-atom:  no
Pseudo Atom[   8] Name Ar       Oxidation: +0       Element: Ar   pdb-name: Ar   Scat. Types:  19  18 Mass=39.948000000 B-factor:1.000   
                 Charge=0.000000000          Polarization=0.000000000  [A^3] (considered a chargeless atom and no polarization)  Interactions: yes
                 Anisotropic factor:    0.000 [-] (Relative), Radius:    0.700 [A], Framework-atom:  no
Pseudo Atom[   9] Name CH4      Oxidation: +0       Element: C    pdb-name: C    Scat. Types:   7   6 Mass=16.042460000 B-factor:1.000   
                 Charge=0.000000000          Polarization=0.000000000  [A^3] (considered a chargeless atom and no polarization)  Interactions: yes
                 Anisotropic factor:    0.000 [-] (Relative), Radius:    1.000 [A], Framework-atom:  no
Pseudo Atom[  10] Name CH3      Oxidation: +0       Element: C    pdb-name: C    Scat. Types:   7   6 Mass=15.034520000 B-factor:1.000   
                 Charge=0.000000000          Polarization=0.000000000  [A^3] (considered a chargeless atom and no polarization)  Interactions: yes
                 Anisotropic factor:    0.000 [-] (Relative), Radius:    1.000 [A], Framework-atom:  no
Pseudo Atom[  11] Name CH2      Oxidation: +0       Element: C    pdb-name: C    Scat. Types:   7   6 Mass=14.026580000 B-factor:1.000   
                 Charge=0.000000000          Polarization=0.000000000  [A^3] (considered a chargeless atom and no polarization)  Interactions: yes
                 Anisotropic factor:    0.000 [-] (Relative), Radius:    1.000 [A], Framework-atom:  no
Pseudo Atom[  12] Name CH       Oxidation: +0       Element: C    pdb-name: C    Scat. Types:   7   6 Mass=13.018640000 B-factor:1.000   
                 Charge=0.000000000          Polarization=0.000000000  [A^3] (considered a chargeless atom and no polarization)  Interactions: yes
                 Anisotropic factor:    0.000 [-] (Relative), Radius:    1.000 [A], Framework-atom:  no
Pseudo Atom[  13] Name C        Oxidation: +0       Element: C    pdb-name: C    Scat. Types:   7   6 Mass=12.000000000 B-factor:1.000   
                 Charge=0.000000000          Polarization=0.000000000  [A^3] (considered a chargeless atom and no polarization)  Interactions: yes
                 Anisotropic factor:    0.000 [-] (Relative), Radius:    1.000 [A], Framework-atom:  no
Pseudo Atom[  14] Name Si       Oxidation: 4+       Element: Si   pdb-name: Si   Scat. Types:  15  14 Mass=28.085498706 B-factor:0.000   
                 Charge=0.000000000  (-na-)  Polarization=5.380000000  [A^3] (considered a chargeless atom and no polarization)  Interactions: yes
                 Anisotropic factor:    0.000 [-] (Absolute), Radius:    1.140 [A], Framework-atom: yes (charge definition not found)
Pseudo Atom[  15] Name O        Oxidation: 2-       Element: O    pdb-name: O    Scat. Types:   9   8 Mass=15.999404927 B-factor:0.000   
                 Charge=0.000000000  (-na-)  Polarization=0.802000000  [A^3] (considered a chargeless atom and no polarization)  Interactions: yes
                 Anisotropic factor:    0.000 [-] (Absolute), Radius:    0.640 [A], Framework-atom: yes (charge definition not found)


Forcefield: ExampleZeolitesForceField
===========================================================================
Minimal distance: 1
CutOff VDW : 12.000000 (144.000000)
CutOff VDW switching on: 10.800000 (116.640000)
CutOff charge-charge : 12.000000 (144.000000)
CutOff charge-charge switching on: 7.800000 (60.840000)
CutOff charge-bonddipole : 12.000000 (144.000000)
CutOff charge-bondipole switching on: 8.400000 (70.560000)
CutOff bonddipole-bonddipole : 12.000000 (144.000000)
CutOff bonddipole-bondipole switching on: 9.000000 (81.000000)
Polarization is neglected
All potentials are shifted to zero at the Cutoff

General mixing rule: Lorentz-Berthelot mixing rules are used FIRST for cross terms
0 cross terms are overwritten using the individual mixing rules from the file 'force_field_mixing_rules.def'
and then 0 terms are overwritten using the specific interactions from the file 'force_field.def'

The force field and all the interactions:
     He -      He [LENNARD_JONES] p_0/k_B:  10.90000 [K], p_1: 2.64000 [A], shift/k_B:  -0.00494280 [K], tailcorrection: no
     He -   C_co2 [LENNARD_JONES] p_0/k_B:  18.06294 [K], p_1: 2.69250 [A], shift/k_B:  -0.00921806 [K], tailcorrection: no
     He -   O_co2 [LENNARD_JONES] p_0/k_B:  30.55837 [K], p_1: 2.82850 [A], shift/k_B:  -0.02095875 [K], tailcorrection: no
     He -    O_o2 [LENNARD_JONES] p_0/k_B:  24.04061 [K], p_1: 2.84250 [A], shift/k_B:  -0.01698416 [K], tailcorrection: no
     He -   O_com [ZERO_POTENTIAL]
     He -    N_n2 [LENNARD_JONES] p_0/k_B:  20.43155 [K], p_1: 2.97300 [A], shift/k_B:  -0.01889482 [K], tailcorrection: no
     He -   N_com [ZERO_POTENTIAL]
     He -      Ar [LENNARD_JONES] p_0/k_B:  36.77449 [K], p_1: 3.01000 [A], shift/k_B:  -0.03662773 [K], tailcorrection: no
     He -     CH4 [LENNARD_JONES] p_0/k_B:  41.56501 [K], p_1: 3.18000 [A], shift/k_B:  -0.05755893 [K], tailcorrection: no
     He -     CH3 [LENNARD_JONES] p_0/k_B:  34.31035 [K], p_1: 3.20000 [A], shift/k_B:  -0.04933343 [K], tailcorrection: no
     He -     CH2 [LENNARD_JONES] p_0/k_B:  24.70627 [K], p_1: 3.30000 [A], shift/k_B:  -0.04272436 [K], tailcorrection: no
     He -      CH [LENNARD_JONES] p_0/k_B:  13.61249 [K], p_1: 3.65500 [A], shift/k_B:  -0.04343978 [K], tailcorrection: no
     He -       C [LENNARD_JONES] p_0/k_B:   2.95296 [K], p_1: 4.51000 [A], shift/k_B:  -0.03319436 [K], tailcorrection: no
     He -      Si [LENNARD_JONES] p_0/k_B:  15.48548 [K], p_1: 2.47000 [A], shift/k_B:  -0.00471027 [K], tailcorrection: no
     He -       O [LENNARD_JONES] p_0/k_B:  24.03539 [K], p_1: 2.97000 [A], shift/k_B:  -0.02209340 [K], tailcorrection: no
  C_co2 -   C_co2 [LENNARD_JONES] p_0/k_B:  29.93300 [K], p_1: 2.74500 [A], shift/k_B:  -0.01715199 [K], tailcorrection: no
  C_co2 -   O_co2 [LENNARD_JONES] p_0/k_B:  50.63981 [K], p_1: 2.88100 [A], shift/k_B:  -0.03878296 [K], tailcorrection: no
  C_co2 -    O_o2 [LENNARD_JONES] p_0/k_B:  39.83889 [K], p_1: 2.89500 [A], shift/k_B:  -0.03141127 [K], tailcorrection: no
  C_co2 -   O_com [ZERO_POTENTIAL]
  C_co2 -    N_n2 [LENNARD_JONES] p_0/k_B:  33.85815 [K], p_1: 3.02550 [A], shift/k_B:  -0.03477820 [K], tailcorrection: no
  C_co2 -   N_com [ZERO_POTENTIAL]
  C_co2 -      Ar [LENNARD_JONES] p_0/k_B:  60.94085 [K], p_1: 3.06250 [A], shift/k_B:  -0.06733139 [K], tailcorrection: no
  C_co2 -     CH4 [LENNARD_JONES] p_0/k_B:  68.87946 [K], p_1: 3.23250 [A], shift/k_B:  -0.10522708 [K], tailcorrection: no
  C_co2 -     CH3 [LENNARD_JONES] p_0/k_B:  56.85740 [K], p_1: 3.25250 [A], shift/k_B:  -0.09013451 [K], tailcorrection: no
  C_co2 -     CH2 [LENNARD_JONES] p_0/k_B:  40.94201 [K], p_1: 3.35250 [A], shift/k_B:  -0.07783014 [K], tailcorrection: no
  C_co2 -      CH [LENNARD_JONES] p_0/k_B:  22.55795 [K], p_1: 3.70750 [A], shift/k_B:  -0.07841175 [K], tailcorrection: no
  C_co2 -       C [LENNARD_JONES] p_0/k_B:   4.89351 [K], p_1: 4.56250 [A], shift/k_B:  -0.05895165 [K], tailcorrection: no
  C_co2 -      Si [LENNARD_JONES] p_0/k_B:  25.66176 [K], p_1: 2.52250 [A], shift/k_B:  -0.00885541 [K], tailcorrection: no
  C_co2 -       O [LENNARD_JONES] p_0/k_B:  39.83025 [K], p_1: 3.02250 [A], shift/k_B:  -0.04066985 [K], tailcorrection: no
  O_co2 -   O_co2 [LENNARD_JONES] p_0/k_B:  85.67100 [K], p_1: 3.01700 [A], shift/k_B:  -0.08652638 [K], tailcorrection: no
  O_co2 -    O_o2 [LENNARD_JONES] p_0/k_B:  67.39832 [K], p_1: 3.03100 [A], shift/k_B:  -0.06998813 [K], tailcorrection: no
  O_co2 -   O_com [ZERO_POTENTIAL]
  O_co2 -    N_n2 [LENNARD_JONES] p_0/k_B:  57.28026 [K], p_1: 3.16150 [A], shift/k_B:  -0.07659340 [K], tailcorrection: no
  O_co2 -   N_com [ZERO_POTENTIAL]
  O_co2 -      Ar [LENNARD_JONES] p_0/k_B: 103.09802 [K], p_1: 3.19850 [A], shift/k_B:  -0.14782408 [K], tailcorrection: no
  O_co2 -     CH4 [LENNARD_JONES] p_0/k_B: 116.52834 [K], p_1: 3.36850 [A], shift/k_B:  -0.22793491 [K], tailcorrection: no
  O_co2 -     CH3 [LENNARD_JONES] p_0/k_B:  96.18975 [K], p_1: 3.38850 [A], shift/k_B:  -0.19495125 [K], tailcorrection: no
  O_co2 -     CH2 [LENNARD_JONES] p_0/k_B:  69.26454 [K], p_1: 3.48850 [A], shift/k_B:  -0.16712968 [K], tailcorrection: no
  O_co2 -      CH [LENNARD_JONES] p_0/k_B:  38.16290 [K], p_1: 3.84350 [A], shift/k_B:  -0.16462890 [K], tailcorrection: no
  O_co2 -       C [LENNARD_JONES] p_0/k_B:   8.27870 [K], p_1: 4.69850 [A], shift/k_B:  -0.11888367 [K], tailcorrection: no
  O_co2 -      Si [LENNARD_JONES] p_0/k_B:  43.41385 [K], p_1: 2.65850 [A], shift/k_B:  -0.02052908 [K], tailcorrection: no
  O_co2 -       O [LENNARD_JONES] p_0/k_B:  67.38370 [K], p_1: 3.15850 [A], shift/k_B:  -0.08959179 [K], tailcorrection: no
   O_o2 -    O_o2 [LENNARD_JONES] p_0/k_B:  53.02300 [K], p_1: 3.04500 [A], shift/k_B:  -0.05660368 [K], tailcorrection: no
   O_o2 -   O_com [ZERO_POTENTIAL]
   O_o2 -    N_n2 [LENNARD_JONES] p_0/k_B:  45.06301 [K], p_1: 3.17550 [A], shift/k_B:  -0.06187515 [K], tailcorrection: no
   O_o2 -   N_com [ZERO_POTENTIAL]
   O_o2 -      Ar [LENNARD_JONES] p_0/k_B:  81.10834 [K], p_1: 3.21250 [A], shift/k_B:  -0.11938149 [K], tailcorrection: no
   O_o2 -     CH4 [LENNARD_JONES] p_0/k_B:  91.67413 [K], p_1: 3.38250 [A], shift/k_B:  -0.18383502 [K], tailcorrection: no
   O_o2 -     CH3 [LENNARD_JONES] p_0/k_B:  75.67354 [K], p_1: 3.40250 [A], shift/k_B:  -0.15720980 [K], tailcorrection: no
   O_o2 -     CH2 [LENNARD_JONES] p_0/k_B:  54.49117 [K], p_1: 3.50250 [A], shift/k_B:  -0.13467871 [K], tailcorrection: no
   O_o2 -      CH [LENNARD_JONES] p_0/k_B:  30.02317 [K], p_1: 3.85750 [A], shift/k_B:  -0.13236868 [K], tailcorrection: no
   O_o2 -       C [LENNARD_JONES] p_0/k_B:   6.51294 [K], p_1: 4.71250 [A], shift/k_B:  -0.09520548 [K], tailcorrection: no
   O_o2 -      Si [LENNARD_JONES] p_0/k_B:  34.15415 [K], p_1: 2.67250 [A], shift/k_B:  -0.01666746 [K], tailcorrection: no
   O_o2 -       O [LENNARD_JONES] p_0/k_B:  53.01150 [K], p_1: 3.17250 [A], shift/k_B:  -0.07237758 [K], tailcorrection: no
  O_com -   O_com [ZERO_POTENTIAL]
  O_com -    N_n2 [ZERO_POTENTIAL]
  O_com -   N_com [ZERO_POTENTIAL]
  O_com -      Ar [ZERO_POTENTIAL]
  O_com -     CH4 [ZERO_POTENTIAL]
  O_com -     CH3 [ZERO_POTENTIAL]
  O_com -     CH2 [ZERO_POTENTIAL]
  O_com -      CH [ZERO_POTENTIAL]
  O_com -       C [ZERO_POTENTIAL]
  O_com -      Si [ZERO_POTENTIAL]
  O_com -       O [ZERO_POTENTIAL]
   N_n2 -    N_n2 [LENNARD_JONES] p_0/k_B:  38.29800 [K], p_1: 3.30600 [A], shift/k_B:  -0.06695388 [K], tailcorrection: no
   N_n2 -   N_com [ZERO_POTENTIAL]
   N_n2 -      Ar [LENNARD_JONES] p_0/k_B:  68.93209 [K], p_1: 3.34300 [A], shift/k_B:  -0.12882767 [K], tailcorrection: no
   N_n2 -     CH4 [LENNARD_JONES] p_0/k_B:  77.91170 [K], p_1: 3.51300 [A], shift/k_B:  -0.19605171 [K], tailcorrection: no
   N_n2 -     CH3 [LENNARD_JONES] p_0/k_B:  64.31317 [K], p_1: 3.53300 [A], shift/k_B:  -0.16743696 [K], tailcorrection: no
   N_n2 -     CH2 [LENNARD_JONES] p_0/k_B:  46.31078 [K], p_1: 3.63300 [A], shift/k_B:  -0.14253201 [K], tailcorrection: no
   N_n2 -      CH [LENNARD_JONES] p_0/k_B:  25.51599 [K], p_1: 3.98800 [A], shift/k_B:  -0.13731894 [K], tailcorrection: no
   N_n2 -       C [LENNARD_JONES] p_0/k_B:   5.53520 [K], p_1: 4.84300 [A], shift/k_B:  -0.09526024 [K], tailcorrection: no
   N_n2 -      Si [LENNARD_JONES] p_0/k_B:  29.02682 [K], p_1: 2.80300 [A], shift/k_B:  -0.01885558 [K], tailcorrection: no
   N_n2 -       O [LENNARD_JONES] p_0/k_B:  45.05324 [K], p_1: 3.30300 [A], shift/k_B:  -0.07833594 [K], tailcorrection: no
  N_com -   N_com [ZERO_POTENTIAL]
  N_com -      Ar [ZERO_POTENTIAL]
  N_com -     CH4 [ZERO_POTENTIAL]
  N_com -     CH3 [ZERO_POTENTIAL]
  N_com -     CH2 [ZERO_POTENTIAL]
  N_com -      CH [ZERO_POTENTIAL]
  N_com -       C [ZERO_POTENTIAL]
  N_com -      Si [ZERO_POTENTIAL]
  N_com -       O [ZERO_POTENTIAL]
     Ar -      Ar [LENNARD_JONES] p_0/k_B: 124.07000 [K], p_1: 3.38000 [A], shift/k_B:  -0.24769804 [K], tailcorrection: no
     Ar -     CH4 [LENNARD_JONES] p_0/k_B: 140.23229 [K], p_1: 3.55000 [A], shift/k_B:  -0.37575039 [K], tailcorrection: no
     Ar -     CH3 [LENNARD_JONES] p_0/k_B: 115.75647 [K], p_1: 3.57000 [A], shift/k_B:  -0.32079374 [K], tailcorrection: no
     Ar -     CH2 [LENNARD_JONES] p_0/k_B:  83.35418 [K], p_1: 3.67000 [A], shift/k_B:  -0.27260937 [K], tailcorrection: no
     Ar -      CH [LENNARD_JONES] p_0/k_B:  45.92592 [K], p_1: 4.02500 [A], shift/k_B:  -0.26122023 [K], tailcorrection: no
     Ar -       C [LENNARD_JONES] p_0/k_B:   9.96273 [K], p_1: 4.88000 [A], shift/k_B:  -0.17943247 [K], tailcorrection: no
     Ar -      Si [LENNARD_JONES] p_0/k_B:  52.24500 [K], p_1: 2.84000 [A], shift/k_B:  -0.03671563 [K], tailcorrection: no
     Ar -       O [LENNARD_JONES] p_0/k_B:  81.09075 [K], p_1: 3.34000 [A], shift/k_B:  -0.15073728 [K], tailcorrection: no
    CH4 -     CH4 [LENNARD_JONES] p_0/k_B: 158.50000 [K], p_1: 3.72000 [A], shift/k_B:  -0.56217796 [K], tailcorrection: no
    CH4 -     CH3 [LENNARD_JONES] p_0/k_B: 130.83577 [K], p_1: 3.74000 [A], shift/k_B:  -0.47921501 [K], tailcorrection: no
    CH4 -     CH2 [LENNARD_JONES] p_0/k_B:  94.21253 [K], p_1: 3.84000 [A], shift/k_B:  -0.40420524 [K], tailcorrection: no
    CH4 -      CH [LENNARD_JONES] p_0/k_B:  51.90857 [K], p_1: 4.19500 [A], shift/k_B:  -0.37827707 [K], tailcorrection: no
    CH4 -       C [LENNARD_JONES] p_0/k_B:  11.26055 [K], p_1: 5.05000 [A], shift/k_B:  -0.24880626 [K], tailcorrection: no
    CH4 -      Si [LENNARD_JONES] p_0/k_B:  59.05083 [K], p_1: 3.01000 [A], shift/k_B:  -0.05881516 [K], tailcorrection: no
    CH4 -       O [LENNARD_JONES] p_0/k_B:  91.65424 [K], p_1: 3.51000 [A], shift/k_B:  -0.22945404 [K], tailcorrection: no
    CH3 -     CH3 [LENNARD_JONES] p_0/k_B: 108.00000 [K], p_1: 3.76000 [A], shift/k_B:  -0.40842485 [K], tailcorrection: no
    CH3 -     CH2 [LENNARD_JONES] p_0/k_B:  77.76889 [K], p_1: 3.86000 [A], shift/k_B:  -0.34420794 [K], tailcorrection: no
    CH3 -      CH [LENNARD_JONES] p_0/k_B:  42.84857 [K], p_1: 4.21500 [A], shift/k_B:  -0.32127575 [K], tailcorrection: no
    CH3 -       C [LENNARD_JONES] p_0/k_B:   9.29516 [K], p_1: 5.07000 [A], shift/k_B:  -0.21028090 [K], tailcorrection: no
    CH3 -      Si [LENNARD_JONES] p_0/k_B:  48.74423 [K], p_1: 3.03000 [A], shift/k_B:  -0.05051716 [K], tailcorrection: no
    CH3 -       O [LENNARD_JONES] p_0/k_B:  75.65712 [K], p_1: 3.53000 [A], shift/k_B:  -0.19596976 [K], tailcorrection: no
    CH2 -     CH2 [LENNARD_JONES] p_0/k_B:  56.00000 [K], p_1: 3.96000 [A], shift/k_B:  -0.28891522 [K], tailcorrection: no
    CH2 -      CH [LENNARD_JONES] p_0/k_B:  30.85450 [K], p_1: 4.31500 [A], shift/k_B:  -0.26621710 [K], tailcorrection: no
    CH2 -       C [LENNARD_JONES] p_0/k_B:   6.69328 [K], p_1: 5.17000 [A], shift/k_B:  -0.17012512 [K], tailcorrection: no
    CH2 -      Si [LENNARD_JONES] p_0/k_B:  35.09986 [K], p_1: 3.13000 [A], shift/k_B:  -0.04419846 [K], tailcorrection: no
    CH2 -       O [LENNARD_JONES] p_0/k_B:  54.47935 [K], p_1: 3.63000 [A], shift/k_B:  -0.16684428 [K], tailcorrection: no
     CH -      CH [LENNARD_JONES] p_0/k_B:  17.00000 [K], p_1: 4.67000 [A], shift/k_B:  -0.23540268 [K], tailcorrection: no
     CH -       C [LENNARD_JONES] p_0/k_B:   3.68782 [K], p_1: 5.52500 [A], shift/k_B:  -0.13918063 [K], tailcorrection: no
     CH -      Si [LENNARD_JONES] p_0/k_B:  19.33908 [K], p_1: 3.48500 [A], shift/k_B:  -0.04638359 [K], tailcorrection: no
     CH -       O [LENNARD_JONES] p_0/k_B:  30.01666 [K], p_1: 3.98500 [A], shift/k_B:  -0.16081332 [K], tailcorrection: no
      C -       C [LENNARD_JONES] p_0/k_B:   0.80000 [K], p_1: 6.38000 [A], shift/k_B:  -0.07064236 [K], tailcorrection: no
      C -      Si [LENNARD_JONES] p_0/k_B:   4.19524 [K], p_1: 4.34000 [A], shift/k_B:  -0.03747091 [K], tailcorrection: no
      C -       O [LENNARD_JONES] p_0/k_B:   6.51153 [K], p_1: 4.84000 [A], shift/k_B:  -0.11164876 [K], tailcorrection: no
     Si -      Si [LENNARD_JONES] p_0/k_B:  22.00000 [K], p_1: 2.30000 [A], shift/k_B:  -0.00436255 [K], tailcorrection: no
     Si -       O [LENNARD_JONES] p_0/k_B:  34.14674 [K], p_1: 2.80000 [A], shift/k_B:  -0.02203941 [K], tailcorrection: no
      O -       O [LENNARD_JONES] p_0/k_B:  53.00000 [K], p_1: 3.30000 [A], shift/k_B:  -0.09165246 [K], tailcorrection: no


MoleculeDefinitions:
===========================================================================
Component 0 [methane] (Adsorbate molecule)

	MoleculeDefinitions: ExampleDefinitions
	Component contains no atoms with charge
	Component contains no atoms with point dipoles (polarization)
	Component has a net charge of 0.000000

	Ideal chain Rosenbluth weight: 1
	Ideal chain total energy: 0.000000

	Critical temparure [K]: 190.564000
	Critical pressure [Pa]: 4599200.000000
	Acentric factor [-]: 0.011420

	RXMC partition factor ln(q/V) [ln(A^(-3))]:       0.0000000000

	Vapour=stable, Liquid=metastable

	MolFraction:           1.0000000000 [-]
	Compressibility:       0.9999782455 [-]

	Density of the bulk fluid phase:       0.0064316863 [kg/m^3]

	Binary mixture EOS parameters:  (0): 0.000000

	Amount of excess molecules:       0.0029866550 [-]

	Conversion factor molecules/unit cell -> mol/kg:       0.1733675050 [-]
	Conversion factor molecules/unit cell -> mg/g:       2.7812412648 [-]
	Conversion factor molecules/unit cell -> cm^3 STP/gr:       3.8858550532 [-]
	Conversion factor molecules/unit cell -> cm^3 STP/cm^3:       6.9803262157 [-]
	Conversion factor mol/kg -> cm^3 STP/gr:      22.4139757476 [-]
	Conversion factor mol/kg -> cm^3 STP/cm^3:      40.2631751230 [-]

	Partial pressure:      1000.00000000000000 [Pa]
	                          7.50000000000000 [Torr]
	                          0.01000000000000 [bar]
	                          0.00986923266716 [atm]

	Fugacity coefficient:       0.9999782456 [-]

	Partial fugacity:       999.97824558297214 [Pa]
	                          7.49983684187229 [Torr]
	                          0.00999978245583 [bar]
	                          0.00986901796776 [atm]

	Molecule contains 1 number of atoms
		atom:    0  is of type:    9 [       CH4] (group: 0)

	Molecule contains 0 chirality centers

	Molecule contains 1 number of groups

		group: 0 containing: 1 elements
		-------------------------------------------------
		the group is modelled as flexible, i.e. no constraints
		Mass: 16.042460 [a.u.]
		Mass: 0.624508 [kg/m^3]

		Rotational Degrees of freedom: 0
		Diagonalized inertia vector:       0.0000000000
		                                   0.0000000000
		                                   0.0000000000
		element: 0 atom: 0 [       CH4] Charge:  0.000000 Anisotropy: 0.000000 Connectivity: 0 ()

		Dipole:           0.0000000000 [D]
		Quadrupole:       0.0000000000       0.0000000000       0.0000000000 [D Angstrom]
		Quadrupole tensor [D Angstrom]
				       0.0000000000       0.0000000000       0.0000000000
				       0.0000000000       0.0000000000       0.0000000000
				       0.0000000000       0.0000000000       0.0000000000

	Starting bead for growth               : 0

	Degrees of freedom                     : 0
	Translational degrees of freedom       : 0
	Rotational degrees of freedom          : 0
	Vibrational degrees of freedom         : 0
	Constraint degrees of freedom          : 0

	Number of atoms                        : 1

	Number of constraint bonds             : 0
	Number of constraint bends             : 0
	Number of constraint inversion bends   : 0
	Number of constraint torsions          : 0
	Number of constraint improper torsions : 0
	Number of constraint improper torsions : 0

	Number of bonds                        : 0
	Number of Urey-Bradleys                : 0
	Number of bends                        : 0
	Number of inversion bends              : 0
	Number of torsions                     : 0
	Number of improper torsions            : 0
	Number of improper torsions            : 0

	Number of bond/bond cross terms        : 0
	Number of bond/bend cross terms        : 0
	Number of bend/bend cross terms        : 0
	Number of stretch/torsion cross terms  : 0
	Number of bend/torsion cross terms     : 0

	Number of charges                      : 0
	Number of bond-dipoles                 : 0

	Number of intra Van der Waals                             : 0
	Number of intra charge-charge Coulomb                     : 0
	Number of intra charge-bonddipole Coulomb                 : 0
	Number of intra bonddipole-bonddipole Coulomb             : 0

	Number of excluded intra charge-charge Coulomb                     : 0
	Number of excluded intra charge-bonddipole Coulomb                 : 0
	Number of excluded intra bonddipole-bonddipole Coulomb             : 0

	Number of cbmc-config moves                               : 0

	Particle Moves:             
		ProbabilityTranslationMove:                  25.000000
			TranslationDirection:      XYZ
		Percentage of random translation moves:            0.000000
		Percentage of rotation moves:                      0.000000
		Percentage of random rotation moves:               0.000000
		Percentage of partial reinsertion moves:           0.000000
		Percentage of reinsertion moves:                   25.000000
		Percentage of reinsertion-in-place moves:          0.000000
		Percentage of reinsertion-in-plane moves:          0.000000
		Percentage of identity-change moves:               0.000000
		Percentage of swap (insert/delete) moves:          50.000000
		Percentage of CF swap lambda moves:                0.000000
		Percentage of CB/CFMC swap lambda moves:           0.000000
		Percentage of Widom insertion moves:               0.000000
		Percentage of CF-Widom insertion moves:            0.000000
		Percentage of Gibbs Widom insertion moves:         0.000000
		Percentage of surface-area moves:                  0.000000
		Percentage of Gibbs particle-transfer moves:       0.000000
		Percentage of Gibbs identity-change moves:         0.000000
		Percentage of CF Gibbs lambda-transfer moves:      0.000000
		Percentage of CB/CFMC Gibbs lambda-transfer moves: 0.000000
		Percentage of exchange frac./int. particle moves:  0.000000
		Percentage of fractional mol. to other box moves:  0.000000
		Percentage of lambda-change moves:                 0.000000
		Percentage of fractional to integer moves:         0.000000

	System Moves:
		Percentage of parallel-tempering moves:            0.000000
		Percentage of hyper-parallel-tempering moves:      0.000000
		Percentage of parallel-mol-fraction moves:         0.000000
			   Component A: 0 B: 1
		Percentage of chiral inversion moves:              0.000000
		Percentage of Hybrid-NVE moves:                    0.000000
		Percentage of Hybrid-NPH moves:                    0.000000
		Percentage of Hybrid-NPHPR moves:                  0.000000
		Percentage of volume-change moves:                 0.000000
		Percentage of box-shape-change moves:              0.000000
		Percentage of Gibbs volume-change moves:           0.000000
		Percentage of framework-change moves:              0.000000
		Percentage of framework-shift moves:               0.000000
		Percentage of reactive MC moves:                   0.000000

	Moves are restricted: No
	No biased sampling used for this component


	number of identity-config changes: 1
	--------------------------------------------
	nr fixed 1: 0 

	Number of pockets blocked in a unitcell: 0
		Pockets are NOT blocked for this component



Framework Status
===========================================================================
Lowenstein's rule obeyed by framework
	Framework is modelled as: rigid

	Number of charges:                               0
	Number of bonddipoles:                           0


System Properties
===========================================================================
Unit cell size: 20.022000 19.899000 13.383000
Cell angles (radians)  alpha: 1.570796 beta: 1.570796 gamma: 1.570796
Cell angles (degrees)  alpha: 90.000000 beta: 90.000000 gamma: 90.000000
Number of unitcells [a]: 2
Number of unitcells [b]: 2
Number of unitcells [c]: 2

RECTANGULAR Boundary conditions: alpha=beta=gamma=90 degrees

Cartesian axis A is collinear with crystallographic axis a
Cartesian axis B is collinear with (axb)xA
Cartesian axis C is collinear with (axb)

lengths of cell vectors:
 40.04400  39.79800  26.76600
cosines of cell angles:
  0.00000   0.00000   0.00000
perpendicular cell widths:
 40.04400  39.79800  26.76600
volume of the cell: 42656.200983791998 (A^3)

Orthogonalization matrix Box
Transforms fractional coordinates abc into orthonormal Cartesian coordinates xyz
Deorthogonalization matrix InverseBox
Transforms orthonormal Cartesian coordinates xyz into fractional coordinates xyz

Box[0]:
	   40.044000000000     0.000000000000     0.000000000000
	    0.000000000000    39.798000000000     0.000000000000
	    0.000000000000     0.000000000000    26.766000000000

Inverse box[0]:
	    0.024972530217    -0.000000000000    -0.000000000000
	    0.000000000000     0.025126890799    -0.000000000000
	    0.000000000000     0.000000000000     0.037360830905


Unitcell box[0]:
	   20.022000000000     0.000000000000     0.000000000000
	    0.000000000000    19.899000000000     0.000000000000
	    0.000000000000     0.000000000000    13.383000000000

Unitcell inverse box[0]:
	    0.049945060434    -0.000000000000    -0.000000000000
	    0.000000000000     0.050253781597    -0.000000000000
	    0.000000000000     0.000000000000     0.074721661810

lengths of cell vectors (inverse box):
  0.02497   0.02513   0.03736
cosines of cell angles (inverse box):
 -0.00000  -0.00000  -0.00000
perpendicular cell widths (inverse):
  0.02497   0.02513   0.03736
volume of the cell: 42656.200983791998 (A^3)

No replicas are used
Framework is simulated as 'rigid'
Number of framework atoms: 2304
Number of framework atoms in the unit cell: 288
Framework Mass: 46144.748974602669 [g/mol]
Framework Density:  1796.342406023652 [kg/m^3]    0.5566867411506 [cm^3/g]
Helium void fraction:    0.29000000
Available pore volume: 12370.29828530 [A^3]    0.16143915 [cm^3/g]
Conversion factor from molecule/unit cell -> kmol/m^3: 0.0389284, kmol/m^3 accesible pore volume: 0.134236

Number Of Frameworks (per system): 1
----------------------------------------------------------------------
Framework name: MFI_SI
Citation:
	author name:        'H. van Koningsveld, H. van Bekkum, and J. C. Jansen'
	title:              'On the location and disorder of the tetrapropylammonium (TPA) ion in zeolite ZSM-5 with improved framework accuracy'
	journal abbrev.:    'Acta Cryst.'
	journal volume:     B43
	first page:         127
	last page:          132
	year:               1987
Space group: 62
	Identifier: 292
	short international Hermann-Mauguin symbol: P n m a
	long international Hermann-Mauguin symbol: P 21/n 21/m 21/a
	Hall symbol: -P 2ac 2n
	Number of lattice translations: 1 [ (0,0,0) ]
	acentric/centric: acentric
	chiral: yes
	enantiomorphic: no
	number of operators: 8
		'x,y,z'
		'-x+1/2,-y,z+1/2'
		'-x,y+1/2,-z'
		'x+1/2,-y+1/2,-z+1/2'
		'-x,-y,-z'
		'x+1/2,y,-z+1/2'
		'x,-y+1/2,z'
		'-x+1/2,y+1/2,z+1/2'
Framework is simulated as 'rigid'
Shift: 0.000000 0.000000 0.000000
Number of framework atoms: 2304
Number of asymmetric atoms: 38
Number of free framework atoms: 0
Number of fixed framework atoms: 2304
Number of framework atoms in the unit cell: 288
Framework Mass: 46144.748974602669 [g/mol]
Framework Density:  1796.342406023652 [kg/m^3]
Framework has net charge: 0.000000
         largest charge : 0.000000
         smallest charge: 0.000000

Using FULL Host-guest interaction calculation (for testing purposes)

Current Atom Status
===========================================================================
Number of framework atoms        : 2304
Number of cations molecules      : 0
Number of adsorbate molecules    : 0
Component    0 :    0 molecules
Pseudo Atoms    0 [    UNIT]:    0 atoms
Pseudo Atoms    1 [      He]:    0 atoms
Pseudo Atoms    2 [   C_co2]:    0 atoms
Pseudo Atoms    3 [   O_co2]:    0 atoms
Pseudo Atoms    4 [    O_o2]:    0 atoms
Pseudo Atoms    5 [   O_com]:    0 atoms
Pseudo Atoms    6 [    N_n2]:    0 atoms
Pseudo Atoms    7 [   N_com]:    0 atoms
Pseudo Atoms    8 [      Ar]:    0 atoms
Pseudo Atoms    9 [     CH4]:    0 atoms
Pseudo Atoms   10 [     CH3]:    0 atoms
Pseudo Atoms   11 [     CH2]:    0 atoms
Pseudo Atoms   12 [      CH]:    0 atoms
Pseudo Atoms   13 [       C]:    0 atoms
Pseudo Atoms   14 [      Si]:  768 atoms
Pseudo Atoms   15 [       O]: 1536 atoms


Current (initial full energy) Energy Status
===========================================================================

Internal energy:
Host stretch energy:                                            0.00000000
Host UreyBradley energy:                                        0.00000000
Host bend energy:                                               0.00000000
Host inversion-bend energy:                                     0.00000000
Host torsion energy:                                            0.00000000
Host improper torsion energy:                                   0.00000000
Host out-of-plane energy:                                       0.00000000
Host stretch/stretch energy:                                    0.00000000
Host bend/bend energy:                                          0.00000000
Host stretch/bend energy:                                       0.00000000
Host stretch/torsion energy:                                    0.00000000
Host bend/torsion energy:                                       0.00000000

Adsorbate stretch energy:                                       0.00000000
Adsorbate UreyBradley energy:                                   0.00000000
Adsorbate bend energy:                                          0.00000000
Adsorbate inversion-bend energy:                                0.00000000
Adsorbate torsion energy:                                       0.00000000
Adsorbate improper torsion energy:                              0.00000000
Adsorbate out-of-plane energy:                                  0.00000000
Adsorbate stretch/stretch energy:                               0.00000000
Adsorbate bend/bend energy:                                     0.00000000
Adsorbate stretch/bend energy:                                  0.00000000
Adsorbate stretch/torsion energy:                               0.00000000
Adsorbate bend/torsion energy:                                  0.00000000
Adsorbate intra VDW energy:                                     0.00000000
Adsorbate intra charge-charge Coulomb energy:                   0.00000000
Adsorbate intra charge-bonddipole Coulomb energy:               0.00000000
Adsorbate intra bonddipole-bonddipole Coulomb energy:           0.00000000

Cation stretch energy:                                          0.00000000
Cation UreyBradley energy:                                      0.00000000
Cation bend energy:                                             0.00000000
Cation inversion-bend energy:                                   0.00000000
Cation torsion energy:                                          0.00000000
Cation improper torsion energy:                                 0.00000000
Cation out-of-plane energy:                                     0.00000000
Cation stretch/stretch energy:                                  0.00000000
Cation bend/bend energy:                                        0.00000000
Cation stretch/bend energy:                                     0.00000000
Cation stretch/torsion energy:                                  0.00000000
Cation bend/torsion energy:                                     0.00000000
Cation intra VDW energy:                                        0.00000000
Cation intra charge-charge Coulomb energy:                      0.00000000
Cation intra charge-bonddipole Coulomb energy:                  0.00000000
Cation intra bonddipole-bonddipole Coulomb energy:              0.00000000

Host/Host energy:                                             0.00000000
	Host/Host VDW energy:                                         0.00000000
	Host/Host Coulomb energy:                                     0.00000000
	Host/Host charge-charge Real energy:                          0.00000000
	Host/Host charge-charge Fourier energy:                       0.00000000
	Host/Host charge-bonddipole Real energy:                      0.00000000
	Host/Host charge-bonddipole Fourier energy:                   0.00000000
	Host/Host bondipole-bonddipole Real energy:                   0.00000000
	Host/Host bondipole-bonddipole Fourier energy:                0.00000000

Host/Adsorbate energy:                                        0.00000000
	Host/Adsorbate VDW energy:                                    0.00000000
	Host/Adsorbate Coulomb energy:                                0.00000000
	Host/Adsorbate charge-charge Real energy:                     0.00000000
	Host/Adsorbate charge-charge Fourier energy:                  0.00000000
	Host/Adsorbate charge-bonddipole Real energy:                 0.00000000
	Host/Adsorbate charge-bonddipole Fourier energy:              0.00000000
	Host/Adsorbate bondipole-bonddipole Real energy:              0.00000000
	Host/Adsorbate bondipole-bonddipole Fourier energy:           0.00000000

Host/Cation energy:                                           0.00000000
	Host/Cation VDW energy:                                       0.00000000
	Host/Cation Coulomb energy:                                   0.00000000
	Host/Cation charge-charge Real energy:                        0.00000000
	Host/Cation charge-charge Fourier energy:                     0.00000000
	Host/Cation charge-bonddipole Real energy:                    0.00000000
	Host/Cation charge-bonddipole Fourier energy:                 0.00000000
	Host/Cation bondipole-bonddipole Real energy:                 0.00000000
	Host/Cation bondipole-bonddipole Fourier energy:              0.00000000

Adsorbate/Adsorbate energy:                                        0.00000000
	Adsorbate/Adsorbate VDW energy:                                    0.00000000
	Adsorbate/Adsorbate Coulomb energy:                                0.00000000
	Adsorbate/Adsorbate charge-charge Real energy:                     0.00000000
	Adsorbate/Adsorbate charge-charge Fourier energy:                  0.00000000
	Adsorbate/Adsorbate charge-bonddipole Real energy:                 0.00000000
	Adsorbate/Adsorbate charge-bonddipole Fourier energy:              0.00000000
	Adsorbate/Adsorbate bondipole-bonddipole Real energy:              0.00000000
	Adsorbate/Adsorbate bondipole-bonddipole Fourier energy:           0.00000000

Adsorbate/Cation energy:                                           0.00000000
	Adsorbate/Cation VDW energy:                                       0.00000000
	Adsorbate/Cation Coulomb energy:                                   0.00000000
	Adsorbate/Cation charge-charge Real energy:                        0.00000000
	Adsorbate/Cation charge-charge Fourier energy:                     0.00000000
	Adsorbate/Cation charge-bonddipole Real energy:                    0.00000000
	Adsorbate/Cation charge-bonddipole Fourier energy:                 0.00000000
	Adsorbate/Cation bondipole-bonddipole Real energy:                 0.00000000
	Adsorbate/Cation bondipole-bonddipole Fourier energy:              0.00000000

Cation/Cation energy:                                           0.00000000
	Cation/Cation VDW energy:                                       0.00000000
	Cation/Cation Coulomb energy:                                   0.00000000
	Cation/Cation charge-charge Real energy:                        0.00000000
	Cation/Cation charge-charge Fourier energy:                     0.00000000
	Cation/Cation charge-bonddipole Real energy:                    0.00000000
	Cation/Cation charge-bonddipole Fourier energy:                 0.00000000
	Cation/Cation bondipole-bonddipole Real energy:                 0.00000000
	Cation/Cation bondipole-bonddipole Fourier energy:              0.00000000

Polarization energy:
	Host polarization energy:                                     0.00000000
	Adsorbate polarization energy:                                0.00000000
	Cation polarization energy:                                   0.00000000
	Host back-polarization energy:                                     0.00000000
	Adsorbate back-polarization energy:                                0.00000000
	Cation back-polarization energy:                                   0.00000000

Tail-correction energy:                                       0.00000000

Distance constraints energy:                                  0.00000000
Angle constraints energy:                                     0.00000000
Dihedral constraints energy:                                  0.00000000
Inversion-bend constraints energy:                            0.00000000
Out-of-plane distance constraints energy:                     0.00000000
Exclusion constraints energy:                                 0.00000000

===================================================================
Total energy:     0.000000000000
	Total Van der Waals: 0.000000
	Total Coulomb: 0.000000

	Total Polarization: 0.000000







+++++++++++++++++++++++++++++++++++++++++++++++++++++++++++++++++++++++++
Starting simulation
+++++++++++++++++++++++++++++++++++++++++++++++++++++++++++++++++++++++++

[Init] Current cycle: 0 out of 5000
========================================================================================================

Net charge: 0 (F: 0, A: 0, C: 0)
Current Box:  40.04400   0.00000   0.00000 [A]
               0.00000  39.79800   0.00000 [A]
               0.00000   0.00000  26.76600 [A]
Box-lengths:  40.04400  39.79800  26.76600 Box-angles:   90.00000  90.00000  90.00000 [degrees]
Volume: 42656.20098 [A^3]

Loadings per component:
----------------------------------------------------------------------------------------------------------------------------------------------------
Component 0 (methane), current number of integer/fractional/reaction molecules: 0/0/0, density:   0.00000 [kg/m^3]
	absolute adsorption:   0.00000 [mol/uc],         0.0000 [mol/kg],              0.0000 [mg/g]
	                                                 0.0000 [cm^3 STP/g],          0.0000 [cm^3 STP/cm^3]
	excess adsorption:    -0.00037 [mol/uc],        -0.0001 [mol/kg],             -0.0010 [mg/g]
	                                                -0.0015 [cm^3 STP/g],         -0.0026 [cm^3 STP/cm^3]
----------------------------------------------------------------------------------------------------------------------------------------------------
Degrees of freedom: 0 0 0 0
Number of Framework-atoms:   2304
Number of Adsorbates:           0 (0 integer, 0 fractional, 0 reaction)
Number of Cations:              0 (0 integer, 0 fractional, 0 reaction

Current total potential energy:                 0.0000000000 [K]
	Current Host-Host energy:                     0.0000000000 [K]
	Current Host-Adsorbate energy:                0.0000000000 [K]
	Current Host-Cation energy:                   0.0000000000 [K]
	Current Adsorbate-Adsorbate energy:           0.0000000000 [K]
	Current Cation-Cation energy:                 0.0000000000 [K]
	Current Adsorbate-Cation energy:              0.0000000000 [K]



[Init] Current cycle: 1000 out of 5000
========================================================================================================

Net charge: 0 (F: 0, A: 0, C: 0)
Current Box:  40.04400   0.00000   0.00000 [A]
               0.00000  39.79800   0.00000 [A]
               0.00000   0.00000  26.76600 [A]
Box-lengths:  40.04400  39.79800  26.76600 Box-angles:   90.00000  90.00000  90.00000 [degrees]
Volume: 42656.20098 [A^3]

Loadings per component:
----------------------------------------------------------------------------------------------------------------------------------------------------
Component 0 (methane), current number of integer/fractional/reaction molecules: 0/0/0, density:   0.00000 [kg/m^3]
	absolute adsorption:   0.00000 [mol/uc],         0.0000 [mol/kg],              0.0000 [mg/g]
	                                                 0.0000 [cm^3 STP/g],          0.0000 [cm^3 STP/cm^3]
	excess adsorption:    -0.00037 [mol/uc],        -0.0001 [mol/kg],             -0.0010 [mg/g]
	                                                -0.0015 [cm^3 STP/g],         -0.0026 [cm^3 STP/cm^3]
----------------------------------------------------------------------------------------------------------------------------------------------------
Degrees of freedom: 0 0 0 0
Number of Framework-atoms:   2304
Number of Adsorbates:           0 (0 integer, 0 fractional, 0 reaction)
Number of Cations:              0 (0 integer, 0 fractional, 0 reaction

Current total potential energy:                 0.0000000001 [K]
	Current Host-Host energy:                     0.0000000000 [K]
	Current Host-Adsorbate energy:                0.0000000001 [K]
	Current Host-Cation energy:                   0.0000000000 [K]
	Current Adsorbate-Adsorbate energy:           0.0000000000 [K]
	Current Cation-Cation energy:                 0.0000000000 [K]
	Current Adsorbate-Cation energy:              0.0000000000 [K]



[Init] Current cycle: 2000 out of 5000
========================================================================================================

Net charge: 0 (F: 0, A: 0, C: 0)
Current Box:  40.04400   0.00000   0.00000 [A]
               0.00000  39.79800   0.00000 [A]
               0.00000   0.00000  26.76600 [A]
Box-lengths:  40.04400  39.79800  26.76600 Box-angles:   90.00000  90.00000  90.00000 [degrees]
Volume: 42656.20098 [A^3]

Loadings per component:
----------------------------------------------------------------------------------------------------------------------------------------------------
Component 0 (methane), current number of integer/fractional/reaction molecules: 0/0/0, density:   0.00000 [kg/m^3]
	absolute adsorption:   0.00000 [mol/uc],         0.0000 [mol/kg],              0.0000 [mg/g]
	                                                 0.0000 [cm^3 STP/g],          0.0000 [cm^3 STP/cm^3]
	excess adsorption:    -0.00037 [mol/uc],        -0.0001 [mol/kg],             -0.0010 [mg/g]
	                                                -0.0015 [cm^3 STP/g],         -0.0026 [cm^3 STP/cm^3]
----------------------------------------------------------------------------------------------------------------------------------------------------
Degrees of freedom: 0 0 0 0
Number of Framework-atoms:   2304
Number of Adsorbates:           0 (0 integer, 0 fractional, 0 reaction)
Number of Cations:              0 (0 integer, 0 fractional, 0 reaction

Current total potential energy:                 0.0000000001 [K]
	Current Host-Host energy:                     0.0000000000 [K]
	Current Host-Adsorbate energy:                0.0000000000 [K]
	Current Host-Cation energy:                   0.0000000000 [K]
	Current Adsorbate-Adsorbate energy:           0.0000000000 [K]
	Current Cation-Cation energy:                 0.0000000000 [K]
	Current Adsorbate-Cation energy:              0.0000000000 [K]



[Init] Current cycle: 3000 out of 5000
========================================================================================================

Net charge: 0 (F: 0, A: 0, C: 0)
Current Box:  40.04400   0.00000   0.00000 [A]
               0.00000  39.79800   0.00000 [A]
               0.00000   0.00000  26.76600 [A]
Box-lengths:  40.04400  39.79800  26.76600 Box-angles:   90.00000  90.00000  90.00000 [degrees]
Volume: 42656.20098 [A^3]

Loadings per component:
----------------------------------------------------------------------------------------------------------------------------------------------------
Component 0 (methane), current number of integer/fractional/reaction molecules: 0/0/0, density:   0.00000 [kg/m^3]
	absolute adsorption:   0.00000 [mol/uc],         0.0000 [mol/kg],              0.0000 [mg/g]
	                                                 0.0000 [cm^3 STP/g],          0.0000 [cm^3 STP/cm^3]
	excess adsorption:    -0.00037 [mol/uc],        -0.0001 [mol/kg],             -0.0010 [mg/g]
	                                                -0.0015 [cm^3 STP/g],         -0.0026 [cm^3 STP/cm^3]
----------------------------------------------------------------------------------------------------------------------------------------------------
Degrees of freedom: 0 0 0 0
Number of Framework-atoms:   2304
Number of Adsorbates:           0 (0 integer, 0 fractional, 0 reaction)
Number of Cations:              0 (0 integer, 0 fractional, 0 reaction

Current total potential energy:                 0.0000000001 [K]
	Current Host-Host energy:                     0.0000000000 [K]
	Current Host-Adsorbate energy:                0.0000000001 [K]
	Current Host-Cation energy:                   0.0000000000 [K]
	Current Adsorbate-Adsorbate energy:           0.0000000000 [K]
	Current Cation-Cation energy:                 0.0000000000 [K]
	Current Adsorbate-Cation energy:              0.0000000000 [K]



[Init] Current cycle: 4000 out of 5000
========================================================================================================

Net charge: 0 (F: 0, A: 0, C: 0)
Current Box:  40.04400   0.00000   0.00000 [A]
               0.00000  39.79800   0.00000 [A]
               0.00000   0.00000  26.76600 [A]
Box-lengths:  40.04400  39.79800  26.76600 Box-angles:   90.00000  90.00000  90.00000 [degrees]
Volume: 42656.20098 [A^3]

Loadings per component:
----------------------------------------------------------------------------------------------------------------------------------------------------
Component 0 (methane), current number of integer/fractional/reaction molecules: 0/0/0, density:   0.00000 [kg/m^3]
	absolute adsorption:   0.00000 [mol/uc],         0.0000 [mol/kg],              0.0000 [mg/g]
	                                                 0.0000 [cm^3 STP/g],          0.0000 [cm^3 STP/cm^3]
	excess adsorption:    -0.00037 [mol/uc],        -0.0001 [mol/kg],             -0.0010 [mg/g]
	                                                -0.0015 [cm^3 STP/g],         -0.0026 [cm^3 STP/cm^3]
----------------------------------------------------------------------------------------------------------------------------------------------------
Degrees of freedom: 0 0 0 0
Number of Framework-atoms:   2304
Number of Adsorbates:           0 (0 integer, 0 fractional, 0 reaction)
Number of Cations:              0 (0 integer, 0 fractional, 0 reaction

Current total potential energy:                 0.0000000001 [K]
	Current Host-Host energy:                     0.0000000000 [K]
	Current Host-Adsorbate energy:                0.0000000001 [K]
	Current Host-Cation energy:                   0.0000000000 [K]
	Current Adsorbate-Adsorbate energy:           0.0000000000 [K]
	Current Cation-Cation energy:                 0.0000000000 [K]
	Current Adsorbate-Cation energy:              0.0000000000 [K]



Average Properties at Current cycle: 0 out of 25000
========================================================================================

Framework surface area:       0.0000000000 [m^2/g]        0.0000000000 [m^2/cm^3]       0.0000000000 [A^2]
	Framework 0 individual surface area:       0.0000000000 [m^2/g]        0.0000000000 [m^2/cm^3]       0.0000000000 [A^2]
	Cation surface area:                       0.0000000000 [m^2/g]        0.0000000000 [m^2/cm^3]       0.0000000000 [A^2]
Compressibility:               -nan [-]
Henry coefficients
	Component 0: 0 [mol/kg/Pa] (Rosenbluth factor new: 0 [-])
Energy <U_gh>_1-<U_h>_0 from Widom


Current cycle: 0 out of 25000
========================================================================================================

Net charge: 0 (F: 0, A: 0, C: 0)
Current Box:  40.04400   0.00000   0.00000 [A]   Average Box:  40.04400   0.00000   0.00000 [A]
               0.00000  39.79800   0.00000 [A]                  0.00000  39.79800   0.00000 [A]
               0.00000   0.00000  26.76600 [A]                  0.00000   0.00000  26.76600 [A]
Box-lengths:   40.04400  39.79800  26.76600 [A] Average:  40.04400  39.79800  26.76600 [A]
Box-angles:   90.00000  90.00000  90.00000 [degrees] Average:  90.00000  90.00000  90.00000 [degrees]
Volume: 42656.20098 [A^3] Average Volume: 42656.20098 [A^3]

Loadings per component:
----------------------------------------------------------------------------------------------------------------------------------------------------
Component 0 (methane), current number of integer/fractional/reaction molecules: 0/0/0 (avg.   0.00000), density:   0.00000 (avg.   0.00000) [kg/m^3]
	absolute adsorption:   0.00000 (avg.   0.00000) [mol/uc],   0.0000000000 (avg.   0.0000000000) [mol/kg],   0.0000000000 (avg.   0.0000000000) [mg/g]
	                       0.0000000000 (avg.   0.0000000000) [cm^3 STP/g],    0.0000000000 (avg.   0.0000000000) [cm^3 STP/cm^3]
	excess adsorption:    -0.0003733319 (avg.  -0.0003733319) [mol/uc],  -0.0000647236 (avg.  -0.0000647236) [mol/kg],  -0.0010383260 (avg.  -0.0010383260) [mg/g]
	                      -0.0014507135 (avg.  -0.0014507135) [cm^3 STP/g],   -0.0026059782 (avg.  -0.0026059782) [cm^3 STP/cm^3]
----------------------------------------------------------------------------------------------------------------------------------------------------
Degrees of freedom: 0 0 0 0
Number of Framework-atoms:   2304
Number of Adsorbates:           0 (0 integer, 0 fractional, 0 reaction)
Number of Cations:              0 (0 integer, 0 fractional, 0 reaction)

Current total potential energy:                 0.0000000000 [K]  (avg.           0.0000000000)
	Current Host-Host energy:                     0.0000000000 [K]  (avg.           0.0000000000)
	Current Host-Adsorbate energy:                0.0000000000 [K]  (avg.           0.0000000000)
	Current Host-Cation energy:                   0.0000000000 [K]  (avg.           0.0000000000)
	Current Adsorbate-Adsorbate energy:           0.0000000000 [K]  (avg.           0.0000000000)
	Current Cation-Cation energy:                 0.0000000000 [K]  (avg.           0.0000000000)
	Current Adsorbate-Cation energy:              0.0000000000 [K]  (avg.           0.0000000000)



Current cycle: 1000 out of 25000
========================================================================================================

Net charge: 0 (F: 0, A: 0, C: 0)
Current Box:  40.04400   0.00000   0.00000 [A]   Average Box:  40.04400   0.00000   0.00000 [A]
               0.00000  39.79800   0.00000 [A]                  0.00000  39.79800   0.00000 [A]
               0.00000   0.00000  26.76600 [A]                  0.00000   0.00000  26.76600 [A]
Box-lengths:   40.04400  39.79800  26.76600 [A] Average:  40.04400  39.79800  26.76600 [A]
Box-angles:   90.00000  90.00000  90.00000 [degrees] Average:  90.00000  90.00000  90.00000 [degrees]
Volume: 42656.20098 [A^3] Average Volume: 42656.20098 [A^3]

Loadings per component:
----------------------------------------------------------------------------------------------------------------------------------------------------
Component 0 (methane), current number of integer/fractional/reaction molecules: 0/0/0 (avg.   0.27273), density:   0.00000 (avg.   0.17032) [kg/m^3]
	absolute adsorption:   0.00000 (avg.   0.03409) [mol/uc],   0.0000000000 (avg.   0.0059102559) [mol/kg],   0.0000000000 (avg.   0.0948150431) [mg/g]
	                       0.0000000000 (avg.   0.1324723314) [cm^3 STP/g],    0.0000000000 (avg.   0.2379656664) [cm^3 STP/cm^3]
	excess adsorption:    -0.0003733319 (avg.   0.0337175772) [mol/uc],  -0.0000647236 (avg.   0.0058455322) [mol/kg],  -0.0010383260 (avg.   0.0937767171) [mg/g]
	                      -0.0014507135 (avg.   0.1310216178) [cm^3 STP/g],   -0.0026059782 (avg.   0.2353596882) [cm^3 STP/cm^3]
----------------------------------------------------------------------------------------------------------------------------------------------------
Degrees of freedom: 0 0 0 0
Number of Framework-atoms:   2304
Number of Adsorbates:           0 (0 integer, 0 fractional, 0 reaction)
Number of Cations:              0 (0 integer, 0 fractional, 0 reaction)

Current total potential energy:                 0.0000000000 [K]  (avg.        -533.7001616289)
	Current Host-Host energy:                     0.0000000000 [K]  (avg.           0.0000000000)
	Current Host-Adsorbate energy:                0.0000000000 [K]  (avg.        -533.7000896939)
	Current Host-Cation energy:                   0.0000000000 [K]  (avg.           0.0000000000)
	Current Adsorbate-Adsorbate energy:           0.0000000000 [K]  (avg.          -0.0000719350)
	Current Cation-Cation energy:                 0.0000000000 [K]  (avg.           0.0000000000)
	Current Adsorbate-Cation energy:              0.0000000000 [K]  (avg.           0.0000000000)



Current cycle: 2000 out of 25000
========================================================================================================

Net charge: 0 (F: 0, A: 0, C: 0)
Current Box:  40.04400   0.00000   0.00000 [A]   Average Box:  40.04400   0.00000   0.00000 [A]
               0.00000  39.79800   0.00000 [A]                  0.00000  39.79800   0.00000 [A]
               0.00000   0.00000  26.76600 [A]                  0.00000   0.00000  26.76600 [A]
Box-lengths:   40.04400  39.79800  26.76600 [A] Average:  40.04400  39.79800  26.76600 [A]
Box-angles:   90.00000  90.00000  90.00000 [degrees] Average:  90.00000  90.00000  90.00000 [degrees]
Volume: 42656.20098 [A^3] Average Volume: 42656.20098 [A^3]

Loadings per component:
----------------------------------------------------------------------------------------------------------------------------------------------------
Component 0 (methane), current number of integer/fractional/reaction molecules: 1/0/0 (avg.   0.28136), density:   0.62451 (avg.   0.17571) [kg/m^3]
	absolute adsorption:   0.12500 (avg.   0.03517) [mol/uc],   0.0216709381 (avg.   0.0060973204) [mol/kg],   0.3476551581 (avg.   0.0978160190) [mg/g]
	                       0.4857318816 (avg.   0.1366651921) [cm^3 STP/g],    0.8725407770 (avg.   0.2454974800) [cm^3 STP/cm^3]
	excess adsorption:     0.1246266681 (avg.   0.0347965832) [mol/uc],   0.0216062145 (avg.   0.0060325968) [mol/kg],   0.3466168321 (avg.   0.0967776930) [mg/g]
	                       0.4842811681 (avg.   0.1352144786) [cm^3 STP/g],    0.8699347987 (avg.   0.2428915017) [cm^3 STP/cm^3]
----------------------------------------------------------------------------------------------------------------------------------------------------
Degrees of freedom: 3 0 3 0
Number of Framework-atoms:   2304
Number of Adsorbates:           1 (1 integer, 0 fractional, 0 reaction)
Number of Cations:              0 (0 integer, 0 fractional, 0 reaction)

Current total potential energy:             -1728.9278962395 [K]  (avg.        -556.8411925257)
	Current Host-Host energy:                     0.0000000000 [K]  (avg.           0.0000000000)
	Current Host-Adsorbate energy:            -1728.9278962395 [K]  (avg.        -556.8108591683)
	Current Host-Cation energy:                   0.0000000000 [K]  (avg.           0.0000000000)
	Current Adsorbate-Adsorbate energy:           0.0000000000 [K]  (avg.          -0.0303333574)
	Current Cation-Cation energy:                 0.0000000000 [K]  (avg.           0.0000000000)
	Current Adsorbate-Cation energy:              0.0000000000 [K]  (avg.           0.0000000000)



Current cycle: 3000 out of 25000
========================================================================================================

Net charge: 0 (F: 0, A: 0, C: 0)
Current Box:  40.04400   0.00000   0.00000 [A]   Average Box:  40.04400   0.00000   0.00000 [A]
               0.00000  39.79800   0.00000 [A]                  0.00000  39.79800   0.00000 [A]
               0.00000   0.00000  26.76600 [A]                  0.00000   0.00000  26.76600 [A]
Box-lengths:   40.04400  39.79800  26.76600 [A] Average:  40.04400  39.79800  26.76600 [A]
Box-angles:   90.00000  90.00000  90.00000 [degrees] Average:  90.00000  90.00000  90.00000 [degrees]
Volume: 42656.20098 [A^3] Average Volume: 42656.20098 [A^3]

Loadings per component:
----------------------------------------------------------------------------------------------------------------------------------------------------
Component 0 (methane), current number of integer/fractional/reaction molecules: 1/0/0 (avg.   0.28524), density:   0.62451 (avg.   0.17813) [kg/m^3]
	absolute adsorption:   0.12500 (avg.   0.03565) [mol/uc],   0.0216709381 (avg.   0.0061813806) [mol/kg],   0.3476551581 (avg.   0.0991645503) [mg/g]
	                       0.4857318816 (avg.   0.1385493138) [cm^3 STP/g],    0.8725407770 (avg.   0.2488820077) [cm^3 STP/cm^3]
	excess adsorption:     0.1246266681 (avg.   0.0352814499) [mol/uc],   0.0216062145 (avg.   0.0061166569) [mol/kg],   0.3466168321 (avg.   0.0981262243) [mg/g]
	                       0.4842811681 (avg.   0.1370986003) [cm^3 STP/g],    0.8699347987 (avg.   0.2462760295) [cm^3 STP/cm^3]
----------------------------------------------------------------------------------------------------------------------------------------------------
Degrees of freedom: 3 0 3 0
Number of Framework-atoms:   2304
Number of Adsorbates:           1 (1 integer, 0 fractional, 0 reaction)
Number of Cations:              0 (0 integer, 0 fractional, 0 reaction)

Current total potential energy:             -2248.6578800962 [K]  (avg.        -566.5387561898)
	Current Host-Host energy:                     0.0000000000 [K]  (avg.           0.0000000000)
	Current Host-Adsorbate energy:            -2248.6578800962 [K]  (avg.        -566.4966803973)
	Current Host-Cation energy:                   0.0000000000 [K]  (avg.           0.0000000000)
	Current Adsorbate-Adsorbate energy:           0.0000000000 [K]  (avg.          -0.0420757924)
	Current Cation-Cation energy:                 0.0000000000 [K]  (avg.           0.0000000000)
	Current Adsorbate-Cation energy:              0.0000000000 [K]  (avg.           0.0000000000)



Current cycle: 4000 out of 25000
========================================================================================================

Net charge: 0 (F: 0, A: 0, C: 0)
Current Box:  40.04400   0.00000   0.00000 [A]   Average Box:  40.04400   0.00000   0.00000 [A]
               0.00000  39.79800   0.00000 [A]                  0.00000  39.79800   0.00000 [A]
               0.00000   0.00000  26.76600 [A]                  0.00000   0.00000  26.76600 [A]
Box-lengths:   40.04400  39.79800  26.76600 [A] Average:  40.04400  39.79800  26.76600 [A]
Box-angles:   90.00000  90.00000  90.00000 [degrees] Average:  90.00000  90.00000  90.00000 [degrees]
Volume: 42656.20098 [A^3] Average Volume: 42656.20098 [A^3]

Loadings per component:
----------------------------------------------------------------------------------------------------------------------------------------------------
Component 0 (methane), current number of integer/fractional/reaction molecules: 1/0/0 (avg.   0.28643), density:   0.62451 (avg.   0.17888) [kg/m^3]
	absolute adsorption:   0.12500 (avg.   0.03580) [mol/uc],   0.0216709381 (avg.   0.0062071720) [mol/kg],   0.3476551581 (avg.   0.0995783082) [mg/g]
	                       0.4857318816 (avg.   0.1391274022) [cm^3 STP/g],    0.8725407770 (avg.   0.2499204525) [cm^3 STP/cm^3]
	excess adsorption:     0.1246266681 (avg.   0.0354302172) [mol/uc],   0.0216062145 (avg.   0.0061424484) [mol/kg],   0.3466168321 (avg.   0.0985399822) [mg/g]
	                       0.4842811681 (avg.   0.1376766887) [cm^3 STP/g],    0.8699347987 (avg.   0.2473144743) [cm^3 STP/cm^3]
----------------------------------------------------------------------------------------------------------------------------------------------------
Degrees of freedom: 3 0 3 0
Number of Framework-atoms:   2304
Number of Adsorbates:           1 (1 integer, 0 fractional, 0 reaction)
Number of Cations:              0 (0 integer, 0 fractional, 0 reaction)

Current total potential energy:             -2024.5934875725 [K]  (avg.        -567.1422363622)
	Current Host-Host energy:                     0.0000000000 [K]  (avg.           0.0000000000)
	Current Host-Adsorbate energy:            -2024.5934875725 [K]  (avg.        -567.0909560975)
	Current Host-Cation energy:                   0.0000000000 [K]  (avg.           0.0000000000)
	Current Adsorbate-Adsorbate energy:           0.0000000000 [K]  (avg.          -0.0512802647)
	Current Cation-Cation energy:                 0.0000000000 [K]  (avg.           0.0000000000)
	Current Adsorbate-Cation energy:              0.0000000000 [K]  (avg.           0.0000000000)



Current cycle: 5000 out of 25000
========================================================================================================

Net charge: 0 (F: 0, A: 0, C: 0)
Current Box:  40.04400   0.00000   0.00000 [A]   Average Box:  40.04400   0.00000   0.00000 [A]
               0.00000  39.79800   0.00000 [A]                  0.00000  39.79800   0.00000 [A]
               0.00000   0.00000  26.76600 [A]                  0.00000   0.00000  26.76600 [A]
Box-lengths:   40.04400  39.79800  26.76600 [A] Average:  40.04400  39.79800  26.76600 [A]
Box-angles:   90.00000  90.00000  90.00000 [degrees] Average:  90.00000  90.00000  90.00000 [degrees]
Volume: 42656.20098 [A^3] Average Volume: 42656.20098 [A^3]

Loadings per component:
----------------------------------------------------------------------------------------------------------------------------------------------------
Component 0 (methane), current number of integer/fractional/reaction molecules: 1/0/0 (avg.   0.28734), density:   0.62451 (avg.   0.17945) [kg/m^3]
	absolute adsorption:   0.12500 (avg.   0.03592) [mol/uc],   0.0216709381 (avg.   0.0062269822) [mol/kg],   0.3476551581 (avg.   0.0998961132) [mg/g]
	                       0.4857318816 (avg.   0.1395714285) [cm^3 STP/g],    0.8725407770 (avg.   0.2507180757) [cm^3 STP/cm^3]
	excess adsorption:     0.1246266681 (avg.   0.0355444846) [mol/uc],   0.0216062145 (avg.   0.0061622586) [mol/kg],   0.3466168321 (avg.   0.0988577872) [mg/g]
	                       0.4842811681 (avg.   0.1381207150) [cm^3 STP/g],    0.8699347987 (avg.   0.2481120975) [cm^3 STP/cm^3]
----------------------------------------------------------------------------------------------------------------------------------------------------
Degrees of freedom: 3 0 3 0
Number of Framework-atoms:   2304
Number of Adsorbates:           1 (1 integer, 0 fractional, 0 reaction)
Number of Cations:              0 (0 integer, 0 fractional, 0 reaction)

Current total potential energy:             -2222.9977406264 [K]  (avg.        -569.4961549342)
	Current Host-Host energy:                     0.0000000000 [K]  (avg.           0.0000000000)
	Current Host-Adsorbate energy:            -2222.9977406264 [K]  (avg.        -569.4458403252)
	Current Host-Cation energy:                   0.0000000000 [K]  (avg.           0.0000000000)
	Current Adsorbate-Adsorbate energy:           0.0000000000 [K]  (avg.          -0.0503146090)
	Current Cation-Cation energy:                 0.0000000000 [K]  (avg.           0.0000000000)
	Current Adsorbate-Cation energy:              0.0000000000 [K]  (avg.           0.0000000000)



Current cycle: 6000 out of 25000
========================================================================================================

Net charge: 0 (F: 0, A: 0, C: 0)
Current Box:  40.04400   0.00000   0.00000 [A]   Average Box:  40.04400   0.00000   0.00000 [A]
               0.00000  39.79800   0.00000 [A]                  0.00000  39.79800   0.00000 [A]
               0.00000   0.00000  26.76600 [A]                  0.00000   0.00000  26.76600 [A]
Box-lengths:   40.04400  39.79800  26.76600 [A] Average:  40.04400  39.79800  26.76600 [A]
Box-angles:   90.00000  90.00000  90.00000 [degrees] Average:  90.00000  90.00000  90.00000 [degrees]
Volume: 42656.20098 [A^3] Average Volume: 42656.20098 [A^3]

Loadings per component:
----------------------------------------------------------------------------------------------------------------------------------------------------
Component 0 (methane), current number of integer/fractional/reaction molecules: 0/0/0 (avg.   0.28279), density:   0.00000 (avg.   0.17660) [kg/m^3]
	absolute adsorption:   0.00000 (avg.   0.03535) [mol/uc],   0.0000000000 (avg.   0.0061282423) [mol/kg],   0.0000000000 (avg.   0.0983120819) [mg/g]
	                       0.0000000000 (avg.   0.1373582741) [cm^3 STP/g],    0.0000000000 (avg.   0.2467424927) [cm^3 STP/cm^3]
	excess adsorption:    -0.0003733319 (avg.   0.0349749434) [mol/uc],  -0.0000647236 (avg.   0.0060635187) [mol/kg],  -0.0010383260 (avg.   0.0972737559) [mg/g]
	                      -0.0014507135 (avg.   0.1359075606) [cm^3 STP/g],   -0.0026059782 (avg.   0.2441365144) [cm^3 STP/cm^3]
----------------------------------------------------------------------------------------------------------------------------------------------------
Degrees of freedom: 0 0 0 0
Number of Framework-atoms:   2304
Number of Adsorbates:           0 (0 integer, 0 fractional, 0 reaction)
Number of Cations:              0 (0 integer, 0 fractional, 0 reaction)

Current total potential energy:                 0.0000000001 [K]  (avg.        -558.9002383838)
	Current Host-Host energy:                     0.0000000000 [K]  (avg.           0.0000000000)
	Current Host-Adsorbate energy:                0.0000000001 [K]  (avg.        -558.8540952345)
	Current Host-Cation energy:                   0.0000000000 [K]  (avg.           0.0000000000)
	Current Adsorbate-Adsorbate energy:           0.0000000000 [K]  (avg.          -0.0461431494)
	Current Cation-Cation energy:                 0.0000000000 [K]  (avg.           0.0000000000)
	Current Adsorbate-Cation energy:              0.0000000000 [K]  (avg.           0.0000000000)



Current cycle: 7000 out of 25000
========================================================================================================

Net charge: 0 (F: 0, A: 0, C: 0)
Current Box:  40.04400   0.00000   0.00000 [A]   Average Box:  40.04400   0.00000   0.00000 [A]
               0.00000  39.79800   0.00000 [A]                  0.00000  39.79800   0.00000 [A]
               0.00000   0.00000  26.76600 [A]                  0.00000   0.00000  26.76600 [A]
Box-lengths:   40.04400  39.79800  26.76600 [A] Average:  40.04400  39.79800  26.76600 [A]
Box-angles:   90.00000  90.00000  90.00000 [degrees] Average:  90.00000  90.00000  90.00000 [degrees]
Volume: 42656.20098 [A^3] Average Volume: 42656.20098 [A^3]

Loadings per component:
----------------------------------------------------------------------------------------------------------------------------------------------------
[...]
	Block[ 3]            0.00000 [K]
	Block[ 4]            0.00000 [K]
	------------------------------------------------------------------------------
	Average              0.00000 [K] +/-            0.00000 [K]

Average Cation Bend angle inversion energy:
===========================================
	Block[ 0]            0.00000 [K]
	Block[ 1]            0.00000 [K]
	Block[ 2]            0.00000 [K]
	Block[ 3]            0.00000 [K]
	Block[ 4]            0.00000 [K]
	------------------------------------------------------------------------------
	Average              0.00000 [K] +/-            0.00000 [K]

Average Cation Torsion energy:
==============================
	Block[ 0]            0.00000 [K]
	Block[ 1]            0.00000 [K]
	Block[ 2]            0.00000 [K]
	Block[ 3]            0.00000 [K]
	Block[ 4]            0.00000 [K]
	------------------------------------------------------------------------------
	Average              0.00000 [K] +/-            0.00000 [K]

Average Cation Improper Torsion energy:
=======================================
	Block[ 0]            0.00000 [K]
	Block[ 1]            0.00000 [K]
	Block[ 2]            0.00000 [K]
	Block[ 3]            0.00000 [K]
	Block[ 4]            0.00000 [K]
	------------------------------------------------------------------------------
	Average              0.00000 [K] +/-            0.00000 [K]

Average Cation Bond-Bond cross term energy:
=================================================
	Block[ 0]            0.00000 [K]
	Block[ 1]            0.00000 [K]
	Block[ 2]            0.00000 [K]
	Block[ 3]            0.00000 [K]
	Block[ 4]            0.00000 [K]
	------------------------------------------------------------------------------
	Average              0.00000 [K] +/-            0.00000 [K]

Average Cation Bend-Bend cross term energy:
===========================================
	Block[ 0]            0.00000 [K]
	Block[ 1]            0.00000 [K]
	Block[ 2]            0.00000 [K]
	Block[ 3]            0.00000 [K]
	Block[ 4]            0.00000 [K]
	------------------------------------------------------------------------------
	Average              0.00000 [K] +/-            0.00000 [K]

Average Cation Bond-Bend cross term energy:
==============================================
	Block[ 0]            0.00000 [K]
	Block[ 1]            0.00000 [K]
	Block[ 2]            0.00000 [K]
	Block[ 3]            0.00000 [K]
	Block[ 4]            0.00000 [K]
	------------------------------------------------------------------------------
	Average              0.00000 [K] +/-            0.00000 [K]

Average Cation Bond-Torsion cross term energy:
==============================================
	Block[ 0]            0.00000 [K]
	Block[ 1]            0.00000 [K]
	Block[ 2]            0.00000 [K]
	Block[ 3]            0.00000 [K]
	Block[ 4]            0.00000 [K]
	------------------------------------------------------------------------------
	Average              0.00000 [K] +/-            0.00000 [K]

Average Cation Bend-Torsion cross term energy:
==============================================
	Block[ 0]            0.00000 [K]
	Block[ 1]            0.00000 [K]
	Block[ 2]            0.00000 [K]
	Block[ 3]            0.00000 [K]
	Block[ 4]            0.00000 [K]
	------------------------------------------------------------------------------
	Average              0.00000 [K] +/-            0.00000 [K]

Average Cation Intra Van der Waals energy:
==========================================
	Block[ 0]            0.00000 [K]
	Block[ 1]            0.00000 [K]
	Block[ 2]            0.00000 [K]
	Block[ 3]            0.00000 [K]
	Block[ 4]            0.00000 [K]
	------------------------------------------------------------------------------
	Average              0.00000 [K] +/-            0.00000 [K]

Average Cation Intra charge-charge Coulomb energy:
====================================
	Block[ 0]            0.00000 [K]
	Block[ 1]            0.00000 [K]
	Block[ 2]            0.00000 [K]
	Block[ 3]            0.00000 [K]
	Block[ 4]            0.00000 [K]
	------------------------------------------------------------------------------
	Average              0.00000 [K] +/-            0.00000 [K]

Average Cation Intra charge-bonddipole Coulomb energy:
====================================
	Block[ 0]            0.00000 [K]
	Block[ 1]            0.00000 [K]
	Block[ 2]            0.00000 [K]
	Block[ 3]            0.00000 [K]
	Block[ 4]            0.00000 [K]
	------------------------------------------------------------------------------
	Average              0.00000 [K] +/-            0.00000 [K]

Average Cation Intra bonddipole-bonddipole Coulomb energy:
====================================
	Block[ 0]            0.00000 [K]
	Block[ 1]            0.00000 [K]
	Block[ 2]            0.00000 [K]
	Block[ 3]            0.00000 [K]
	Block[ 4]            0.00000 [K]
	------------------------------------------------------------------------------
	Average              0.00000 [K] +/-            0.00000 [K]

Average Host-Host energy:
=========================
	Block[ 0] 0.00000            Van der Waals: 0.00000            Coulomb: 0.00000            [K]
	Block[ 1] 0.00000            Van der Waals: 0.00000            Coulomb: 0.00000            [K]
	Block[ 2] 0.00000            Van der Waals: 0.00000            Coulomb: 0.00000            [K]
	Block[ 3] 0.00000            Van der Waals: 0.00000            Coulomb: 0.00000            [K]
	Block[ 4] 0.00000            Van der Waals: 0.00000            Coulomb: 0.00000            [K]
	------------------------------------------------------------------------------
	Average   0.00000            Van der Waals: 0.000000           Coulomb: 0.00000            [K]
	      +/- 0.00000                       +/- 0.000000                +/- 0.00000            [K]

Average Adsorbate-Adsorbate energy:
===================================
	Block[ 0] -0.05032           Van der Waals: -0.05032           Coulomb: 0.00000            [K]
	Block[ 1] -0.03103           Van der Waals: -0.03103           Coulomb: 0.00000            [K]
	Block[ 2] -0.06828           Van der Waals: -0.06828           Coulomb: 0.00000            [K]
	Block[ 3] -0.05456           Van der Waals: -0.05456           Coulomb: 0.00000            [K]
	Block[ 4] -0.12550           Van der Waals: -0.12550           Coulomb: 0.00000            [K]
	------------------------------------------------------------------------------
	Average   -0.06594           Van der Waals: -0.065938          Coulomb: 0.00000            [K]
	      +/- 0.04452                       +/- 0.044522                +/- 0.00000            [K]

Average Cation-Cation energy:
=============================
	Block[ 0] 0.00000            Van der Waals: 0.00000            Coulomb: 0.00000            [K]
	Block[ 1] 0.00000            Van der Waals: 0.00000            Coulomb: 0.00000            [K]
	Block[ 2] 0.00000            Van der Waals: 0.00000            Coulomb: 0.00000            [K]
	Block[ 3] 0.00000            Van der Waals: 0.00000            Coulomb: 0.00000            [K]
	Block[ 4] 0.00000            Van der Waals: 0.00000            Coulomb: 0.00000            [K]
	------------------------------------------------------------------------------
	Average   0.00000            Van der Waals: 0.000000           Coulomb: 0.00000            [K]
	      +/- 0.00000                       +/- 0.000000                +/- 0.00000            [K]

Average Host-Adsorbate energy:
==============================
	Block[ 0] -569.11513         Van der Waals: -569.11513         Coulomb: 0.00000            [K]
	Block[ 1] -573.18714         Van der Waals: -573.18714         Coulomb: 0.00000            [K]
	Block[ 2] -570.56796         Van der Waals: -570.56796         Coulomb: 0.00000            [K]
	Block[ 3] -566.95410         Van der Waals: -566.95410         Coulomb: 0.00000            [K]
	Block[ 4] -586.43836         Van der Waals: -586.43836         Coulomb: 0.00000            [K]
	------------------------------------------------------------------------------
	Average   -573.25254         Van der Waals: -573.252539        Coulomb: 0.00000            [K]
	      +/- 9.57349                       +/- 9.573491                +/- 0.00000            [K]

Average Host-Cation energy:
===========================
	Block[ 0] 0.00000            Van der Waals: 0.00000            Coulomb: 0.00000            [K]
	Block[ 1] 0.00000            Van der Waals: 0.00000            Coulomb: 0.00000            [K]
	Block[ 2] 0.00000            Van der Waals: 0.00000            Coulomb: 0.00000            [K]
	Block[ 3] 0.00000            Van der Waals: 0.00000            Coulomb: 0.00000            [K]
	Block[ 4] 0.00000            Van der Waals: 0.00000            Coulomb: 0.00000            [K]
	------------------------------------------------------------------------------
	Average   0.00000            Van der Waals: 0.000000           Coulomb: 0.00000            [K]
	      +/- 0.00000                       +/- 0.000000                +/- 0.00000            [K]

Average Adsorbate-Cation energy:
================================
	Block[ 0] 0.00000            Van der Waals: 0.00000            Coulomb: 0.00000            [K]
	Block[ 1] 0.00000            Van der Waals: 0.00000            Coulomb: 0.00000            [K]
	Block[ 2] 0.00000            Van der Waals: 0.00000            Coulomb: 0.00000            [K]
	Block[ 3] 0.00000            Van der Waals: 0.00000            Coulomb: 0.00000            [K]
	Block[ 4] 0.00000            Van der Waals: 0.00000            Coulomb: 0.00000            [K]
	------------------------------------------------------------------------------
	Average   0.00000            Van der Waals: 0.000000           Coulomb: 0.00000            [K]
	      +/- 0.00000                       +/- 0.000000                +/- 0.00000            [K]

Host polarization energy:
=======================
	Block[ 0]            0.00000 [K]
	Block[ 1]            0.00000 [K]
	Block[ 2]            0.00000 [K]
	Block[ 3]            0.00000 [K]
	Block[ 4]            0.00000 [K]
	------------------------------------------------------------------------------
	Average              0.00000 [K] +/-            0.00000 [K]

Adsorbate polarization energy:
=======================
	Block[ 0]            0.00000 [K]
	Block[ 1]            0.00000 [K]
	Block[ 2]            0.00000 [K]
	Block[ 3]            0.00000 [K]
	Block[ 4]            0.00000 [K]
	------------------------------------------------------------------------------
	Average              0.00000 [K] +/-            0.00000 [K]

Cation polarization energy:
=======================
	Block[ 0]            0.00000 [K]
	Block[ 1]            0.00000 [K]
	Block[ 2]            0.00000 [K]
	Block[ 3]            0.00000 [K]
	Block[ 4]            0.00000 [K]
	------------------------------------------------------------------------------
	Average              0.00000 [K] +/-            0.00000 [K]

Host back-polarization energy:
=======================
	Block[ 0]            0.00000 [K]
	Block[ 1]            0.00000 [K]
	Block[ 2]            0.00000 [K]
	Block[ 3]            0.00000 [K]
	Block[ 4]            0.00000 [K]
	------------------------------------------------------------------------------
	Average              0.00000 [K] +/-            0.00000 [K]

Adsorbate back-polarization energy:
=======================
	Block[ 0]            0.00000 [K]
	Block[ 1]            0.00000 [K]
	Block[ 2]            0.00000 [K]
	Block[ 3]            0.00000 [K]
	Block[ 4]            0.00000 [K]
	------------------------------------------------------------------------------
	Average              0.00000 [K] +/-            0.00000 [K]

Cation back-polarization energy:
=======================
	Block[ 0]            0.00000 [K]
	Block[ 1]            0.00000 [K]
	Block[ 2]            0.00000 [K]
	Block[ 3]            0.00000 [K]
	Block[ 4]            0.00000 [K]
	------------------------------------------------------------------------------
	Average              0.00000 [K] +/-            0.00000 [K]

Tail-correction energy:
=======================
	Block[ 0]            0.00000 [K]
	Block[ 1]            0.00000 [K]
	Block[ 2]            0.00000 [K]
	Block[ 3]            0.00000 [K]
	Block[ 4]            0.00000 [K]
	------------------------------------------------------------------------------
	Average              0.00000 [K] +/-            0.00000 [K]

Distance-constraints energy:
=======================
	Block[ 0]            0.00000 [K]
	Block[ 1]            0.00000 [K]
	Block[ 2]            0.00000 [K]
	Block[ 3]            0.00000 [K]
	Block[ 4]            0.00000 [K]
	------------------------------------------------------------------------------
	Average              0.00000 [K] +/-            0.00000 [K]

Angle-constraints energy:
=======================
	Block[ 0]            0.00000 [K]
	Block[ 1]            0.00000 [K]
	Block[ 2]            0.00000 [K]
	Block[ 3]            0.00000 [K]
	Block[ 4]            0.00000 [K]
	------------------------------------------------------------------------------
	Average              0.00000 [K] +/-            0.00000 [K]

Dihedral-constraints energy:
=======================
	Block[ 0]            0.00000 [K]
	Block[ 1]            0.00000 [K]
	Block[ 2]            0.00000 [K]
	Block[ 3]            0.00000 [K]
	Block[ 4]            0.00000 [K]
	------------------------------------------------------------------------------
	Average              0.00000 [K] +/-            0.00000 [K]

Inversion-bend constraints energy:
=======================
	Block[ 0]            0.00000 [K]
	Block[ 1]            0.00000 [K]
	Block[ 2]            0.00000 [K]
	Block[ 3]            0.00000 [K]
	Block[ 4]            0.00000 [K]
	------------------------------------------------------------------------------
	Average              0.00000 [K] +/-            0.00000 [K]

Out-of-plane-distance constraints energy:
=======================
	Block[ 0]            0.00000 [K]
	Block[ 1]            0.00000 [K]
	Block[ 2]            0.00000 [K]
	Block[ 3]            0.00000 [K]
	Block[ 4]            0.00000 [K]
	------------------------------------------------------------------------------
	Average              0.00000 [K] +/-            0.00000 [K]

Exclusion-constraints energy:
=======================
	Block[ 0]            0.00000 [K]
	Block[ 1]            0.00000 [K]
	Block[ 2]            0.00000 [K]
	Block[ 3]            0.00000 [K]
	Block[ 4]            0.00000 [K]
	------------------------------------------------------------------------------
	Average              0.00000 [K] +/-            0.00000 [K]

Total energy:
=============
	Block[ 0]         -569.16545 [K]
	Block[ 1]         -573.21817 [K]
	Block[ 2]         -570.63623 [K]
	Block[ 3]         -567.00867 [K]
	Block[ 4]         -586.56386 [K]
	------------------------------------------------------------------------------
	Average           -573.31848 [K] +/-            9.61045 [K]

Number of molecules:
====================

Component 0 [methane]
-------------------------------------------------------------
	Block[ 0] 0.28720            [-]
	Block[ 1] 0.28900            [-]
	Block[ 2] 0.28700            [-]
	Block[ 3] 0.28520            [-]
	Block[ 4] 0.29600            [-]
	------------------------------------------------------------------------------
	Average loading absolute                              0.2888800000 +/-       0.0052159260 [-]
	Average loading absolute [molecules/unit cell]        0.0361100000 +/-       0.0006519907 [-]
	Average loading absolute [mol/kg framework]                  0.0062603006 +/-       0.0001130340 [-]
	Average loading absolute [milligram/gram framework]          0.1004306221 +/-       0.0018133436 [-]
	Average loading absolute [cm^3 (STP)/gr framework]           0.1403182260 +/-       0.0025335415 [-]
	Average loading absolute [cm^3 (STP)/cm^3 framework]         0.2520595796 +/-       0.0045511081 [-]

	Block[ 0] 0.28421            [-]
	Block[ 1] 0.28601            [-]
	Block[ 2] 0.28401            [-]
	Block[ 3] 0.28221            [-]
	Block[ 4] 0.29301            [-]
	------------------------------------------------------------------------------
	Average loading excess                              0.2858933450 +/-       0.0052159260 [-]
	Average loading excess [molecules/unit cell]        0.0357366681 +/-       0.0006519907 [-]
	Average loading excess [mol/kg framework]                    0.0061955770 +/-       0.0001130340 [-]
	Average loading excess [milligram/gram framework]            0.0993922961 +/-       0.0018133436 [-]
	Average loading excess [cm^3 (STP)/gr framework]             0.1388675124 +/-       0.0025335415 [-]
	Average loading excess [cm^3 (STP)/cm^3 framework]           0.2494536014 +/-       0.0045511081 [-]


Average Widom Rosenbluth factor:
================================
	Block[ 0] 0 [-]
	Block[ 1] 0 [-]
	Block[ 2] 0 [-]
	Block[ 3] 0 [-]
	Block[ 4] 0 [-]
	------------------------------------------------------------------------------
	[methane] Average Widom Rosenbluth-weight:   0 +/- 0.000000 [-]

Average Widom chemical potential:
=================================
	Block[ 0] 0 [-]
	Block[ 1] 0 [-]
	Block[ 2] 0 [-]
	Block[ 3] 0 [-]
	Block[ 4] 0 [-]
	------------------------------------------------------------------------------
	[methane] Average chemical potential:   0 +/- 0.000000 [K]

Average Widom Ideal-gas contribution:
=====================================
	Block[ 0] 0 [-]
	Block[ 1] 0 [-]
	Block[ 2] 0 [-]
	Block[ 3] 0 [-]
	Block[ 4] 0 [-]
	------------------------------------------------------------------------------
	[methane] Average Widom Ideal-gas chemical potential:   0 +/- 0.000000 [-]

Average Widom excess contribution:
==================================
	Block[ 0] 0 [-]
	Block[ 1] 0 [-]
	Block[ 2] 0 [-]
	Block[ 3] 0 [-]
	Block[ 4] 0 [-]
	------------------------------------------------------------------------------
	[methane] Average Widom excess chemical potential:   0 +/- 0.000000 [-]

Average Gibbs Widom Rosenbluth factor:
======================================
	Block[ 0] 0 [-]
	Block[ 1] 0 [-]
	Block[ 2] 0 [-]
	Block[ 3] 0 [-]
	Block[ 4] 0 [-]
	------------------------------------------------------------------------------
	[methane] Average Gibbs Widom Rosenbluth-weight:   0 +/- 0.000000 [-]

Average Gibbs Widom chemical potential:
=======================================
	Block[ 0] 0 [-]
	Block[ 1] 0 [-]
	Block[ 2] 0 [-]
	Block[ 3] 0 [-]
	Block[ 4] 0 [-]
	------------------------------------------------------------------------------
	[methane] Average Gibbs chemical potential:   0 +/- 0.000000 [K]

Average Gibbs Widom Ideal-gas contribution:
===========================================
	Block[ 0] 0 [-]
	Block[ 1] 0 [-]
	Block[ 2] 0 [-]
	Block[ 3] 0 [-]
	Block[ 4] 0 [-]
	------------------------------------------------------------------------------
	[methane] Average Gibbs Ideal-gas chemical potential:   0 +/- 0.000000 [-]

Average Gibbs Widom excess contribution:
===========================================
	Block[ 0] 0 [-]
	Block[ 1] 0 [-]
	Block[ 2] 0 [-]
	Block[ 3] 0 [-]
	Block[ 4] 0 [-]
	------------------------------------------------------------------------------
	[methane] Average Gibbs excess chemical potential:   0 +/- 0.000000 [-]

Average Henry coefficient:
==========================
	Block[ 0] 0 [mol/kg/Pa]
	Block[ 1] 0 [mol/kg/Pa]
	Block[ 2] 0 [mol/kg/Pa]
	Block[ 3] 0 [mol/kg/Pa]
	Block[ 4] 0 [mol/kg/Pa]
	------------------------------------------------------------------------------
	[methane] Average Henry coefficient:  0 +/- 0 [mol/kg/Pa]

Average adsorption energy <U_gh>_1-<U_h>_0 obtained from Widom-insertion:
(Note: the total heat of adsorption is dH=<U_gh>_1-<U_h>_0 - <U_g> - RT)
=========================================================================

Simulation finished,  0 warnings


Mon Feb 27 16:04:40 2023
Simulation finished on Monday, February 27.
The end time was 04:04 PM.

